<?xml version="1.0" encoding="UTF-8"?>

<!-- generated on 11/09/16 22:07:56 by SUMO Version 0.24.0
<?xml version="1.0" encoding="UTF-8"?>

<configuration xmlns:xsi="http://www.w3.org/2001/XMLSchema-instance" xsi:noNamespaceSchemaLocation="http://sumo.dlr.de/xsd/sumoConfiguration.xsd">

    <input>
        <net-file value="input_net.net.xml"/>
        <route-files value="routes.rou.xml"/>
    </input>

    <output>
        <fcd-output value="fcdoutput.xml"/>
    </output>

</configuration>
-->

<fcd-export xmlns:xsi="http://www.w3.org/2001/XMLSchema-instance" xsi:noNamespaceSchemaLocation="http://sumo.dlr.de/xsd/fcd_file.xsd">
    <timestep time="0.00">
        <vehicle id="0" x="17.75" y="1988.45" angle="90.00" type="CarA" speed="0.00" pos="3.10" lane="0/2to1/2_0" slope="0.00"/>
        <vehicle id="1" x="1011.55" y="1017.75" angle="180.00" type="CarA" speed="0.00" pos="3.10" lane="1/1to1/2_0" slope="0.00"/>
        <vehicle id="10" x="19.75" y="1995.05" angle="90.00" type="DEFAULT_VEHTYPE" speed="0.00" pos="5.10" lane="0/2to1/2_2" slope="0.00"/>
        <vehicle id="11" x="19.75" y="995.05" angle="90.00" type="DEFAULT_VEHTYPE" speed="0.00" pos="5.10" lane="0/1to1/1_2" slope="0.00"/>
        <vehicle id="12" x="19.75" y="1991.75" angle="90.00" type="DEFAULT_VEHTYPE" speed="0.00" pos="5.10" lane="0/2to1/2_1" slope="0.00"/>
        <vehicle id="13" x="19.75" y="998.35" angle="90.00" type="DEFAULT_VEHTYPE" speed="0.00" pos="5.10" lane="0/1to1/1_3" slope="0.00"/>
        <vehicle id="14" x="3001.65" y="1019.75" angle="180.00" type="DEFAULT_VEHTYPE" speed="0.00" pos="5.10" lane="3/1to3/2_3" slope="0.00"/>
        <vehicle id="16" x="2980.25" y="1004.95" angle="-90.00" type="DEFAULT_VEHTYPE" speed="0.00" pos="5.10" lane="3/1to2/1_2" slope="0.00"/>
        <vehicle id="17" x="2980.25" y="2004.95" angle="-90.00" type="DEFAULT_VEHTYPE" speed="0.00" pos="5.10" lane="3/2to2/2_2" slope="0.00"/>
        <vehicle id="18" x="1008.25" y="19.75" angle="180.00" type="DEFAULT_VEHTYPE" speed="0.00" pos="5.10" lane="1/0to1/1_1" slope="0.00"/>
        <vehicle id="19" x="991.75" y="2980.25" angle="0.00" type="DEFAULT_VEHTYPE" speed="0.00" pos="5.10" lane="1/3to1/2_1" slope="0.00"/>
        <vehicle id="2" x="1017.75" y="1988.45" angle="90.00" type="CarA" speed="0.00" pos="3.10" lane="1/2to2/2_0" slope="0.00"/>
        <vehicle id="28" x="1004.95" y="19.75" angle="180.00" type="DEFAULT_VEHTYPE" speed="0.00" pos="5.10" lane="1/0to1/1_2" slope="0.00"/>
        <vehicle id="29" x="995.05" y="2980.25" angle="0.00" type="DEFAULT_VEHTYPE" speed="0.00" pos="5.10" lane="1/3to1/2_2" slope="0.00"/>
        <vehicle id="3" x="17.75" y="988.45" angle="90.00" type="CarA" speed="0.00" pos="3.10" lane="0/1to1/1_0" slope="0.00"/>
        <vehicle id="38" x="1001.65" y="19.75" angle="180.00" type="DEFAULT_VEHTYPE" speed="0.00" pos="5.10" lane="1/0to1/1_3" slope="0.00"/>
        <vehicle id="39" x="998.35" y="2980.25" angle="0.00" type="DEFAULT_VEHTYPE" speed="0.00" pos="5.10" lane="1/3to1/2_3" slope="0.00"/>
        <vehicle id="4" x="2017.75" y="1988.45" angle="90.00" type="CarA" speed="0.00" pos="3.10" lane="2/2to3/2_0" slope="0.00"/>
        <vehicle id="5" x="2988.45" y="1980.25" angle="0.00" type="DEFAULT_VEHTYPE" speed="0.00" pos="5.10" lane="3/2to3/1_0" slope="0.00"/>
        <vehicle id="6" x="2980.25" y="1011.55" angle="-90.00" type="DEFAULT_VEHTYPE" speed="0.00" pos="5.10" lane="3/1to2/1_0" slope="0.00"/>
        <vehicle id="7" x="2980.25" y="2011.55" angle="-90.00" type="DEFAULT_VEHTYPE" speed="0.00" pos="5.10" lane="3/2to2/2_0" slope="0.00"/>
        <vehicle id="8" x="1011.55" y="19.75" angle="180.00" type="DEFAULT_VEHTYPE" speed="0.00" pos="5.10" lane="1/0to1/1_0" slope="0.00"/>
        <vehicle id="9" x="988.45" y="2980.25" angle="0.00" type="DEFAULT_VEHTYPE" speed="0.00" pos="5.10" lane="1/3to1/2_0" slope="0.00"/>
    </timestep>
    <timestep time="1.00">
        <vehicle id="0" x="17.82" y="1988.45" angle="90.00" type="CarA" speed="0.07" pos="3.17" lane="0/2to1/2_0" slope="0.00"/>
        <vehicle id="1" x="1011.55" y="1017.83" angle="180.00" type="CarA" speed="0.08" pos="3.18" lane="1/1to1/2_0" slope="0.00"/>
        <vehicle id="10" x="21.21" y="1995.05" angle="90.00" type="DEFAULT_VEHTYPE" speed="1.46" pos="6.56" lane="0/2to1/2_2" slope="0.00"/>
        <vehicle id="11" x="21.68" y="995.05" angle="90.00" type="DEFAULT_VEHTYPE" speed="1.93" pos="7.03" lane="0/1to1/1_2" slope="0.00"/>
        <vehicle id="12" x="21.93" y="1991.75" angle="90.00" type="DEFAULT_VEHTYPE" speed="2.18" pos="7.28" lane="0/2to1/2_1" slope="0.00"/>
        <vehicle id="13" x="22.29" y="998.35" angle="90.00" type="DEFAULT_VEHTYPE" speed="2.54" pos="7.64" lane="0/1to1/1_3" slope="0.00"/>
        <vehicle id="14" x="3001.65" y="1021.71" angle="180.00" type="DEFAULT_VEHTYPE" speed="1.96" pos="7.06" lane="3/1to3/2_3" slope="0.00"/>
        <vehicle id="16" x="2978.42" y="1004.95" angle="-90.00" type="DEFAULT_VEHTYPE" speed="1.83" pos="6.93" lane="3/1to2/1_2" slope="0.00"/>
        <vehicle id="17" x="2978.58" y="2004.95" angle="-90.00" type="DEFAULT_VEHTYPE" speed="1.67" pos="6.77" lane="3/2to2/2_2" slope="0.00"/>
        <vehicle id="18" x="1008.25" y="22.01" angle="180.00" type="DEFAULT_VEHTYPE" speed="2.26" pos="7.36" lane="1/0to1/1_1" slope="0.00"/>
        <vehicle id="19" x="991.75" y="2978.62" angle="0.00" type="DEFAULT_VEHTYPE" speed="1.63" pos="6.73" lane="1/3to1/2_1" slope="0.00"/>
        <vehicle id="2" x="1017.82" y="1988.45" angle="90.00" type="CarA" speed="0.07" pos="3.17" lane="1/2to2/2_0" slope="0.00"/>
        <vehicle id="28" x="1004.95" y="21.61" angle="180.00" type="DEFAULT_VEHTYPE" speed="1.86" pos="6.96" lane="1/0to1/1_2" slope="0.00"/>
        <vehicle id="29" x="995.05" y="2978.36" angle="0.00" type="DEFAULT_VEHTYPE" speed="1.89" pos="6.99" lane="1/3to1/2_2" slope="0.00"/>
        <vehicle id="3" x="17.83" y="988.45" angle="90.00" type="CarA" speed="0.08" pos="3.18" lane="0/1to1/1_0" slope="0.00"/>
        <vehicle id="38" x="1001.65" y="21.76" angle="180.00" type="DEFAULT_VEHTYPE" speed="2.01" pos="7.11" lane="1/0to1/1_3" slope="0.00"/>
        <vehicle id="39" x="998.35" y="2977.97" angle="0.00" type="DEFAULT_VEHTYPE" speed="2.28" pos="7.38" lane="1/3to1/2_3" slope="0.00"/>
        <vehicle id="4" x="2017.81" y="1988.45" angle="90.00" type="CarA" speed="0.06" pos="3.16" lane="2/2to3/2_0" slope="0.00"/>
        <vehicle id="5" x="2988.45" y="1978.81" angle="0.00" type="DEFAULT_VEHTYPE" speed="1.44" pos="6.54" lane="3/2to3/1_0" slope="0.00"/>
        <vehicle id="6" x="2977.71" y="1011.55" angle="-90.00" type="DEFAULT_VEHTYPE" speed="2.54" pos="7.64" lane="3/1to2/1_0" slope="0.00"/>
        <vehicle id="7" x="2977.71" y="2011.55" angle="-90.00" type="DEFAULT_VEHTYPE" speed="2.54" pos="7.64" lane="3/2to2/2_0" slope="0.00"/>
        <vehicle id="8" x="1011.55" y="22.27" angle="180.00" type="DEFAULT_VEHTYPE" speed="2.52" pos="7.62" lane="1/0to1/1_0" slope="0.00"/>
        <vehicle id="9" x="988.45" y="2977.66" angle="0.00" type="DEFAULT_VEHTYPE" speed="2.59" pos="7.69" lane="1/3to1/2_0" slope="0.00"/>
    </timestep>
    <timestep time="2.00">
        <vehicle id="0" x="17.91" y="1988.45" angle="90.00" type="CarA" speed="0.10" pos="3.26" lane="0/2to1/2_0" slope="0.00"/>
        <vehicle id="1" x="1011.55" y="1017.94" angle="180.00" type="CarA" speed="0.11" pos="3.29" lane="1/1to1/2_0" slope="0.00"/>
        <vehicle id="10" x="24.74" y="1995.05" angle="90.00" type="DEFAULT_VEHTYPE" speed="3.53" pos="10.09" lane="0/2to1/2_2" slope="0.00"/>
        <vehicle id="11" x="26.00" y="995.05" angle="90.00" type="DEFAULT_VEHTYPE" speed="4.31" pos="11.35" lane="0/1to1/1_2" slope="0.00"/>
        <vehicle id="12" x="25.46" y="1991.75" angle="90.00" type="DEFAULT_VEHTYPE" speed="3.53" pos="10.81" lane="0/2to1/2_1" slope="0.00"/>
        <vehicle id="13" x="27.14" y="998.35" angle="90.00" type="DEFAULT_VEHTYPE" speed="4.85" pos="12.49" lane="0/1to1/1_3" slope="0.00"/>
        <vehicle id="14" x="3001.65" y="1025.12" angle="180.00" type="DEFAULT_VEHTYPE" speed="3.41" pos="10.47" lane="3/1to3/2_3" slope="0.00"/>
        <vehicle id="16" x="2974.50" y="1004.95" angle="-90.00" type="DEFAULT_VEHTYPE" speed="3.92" pos="10.85" lane="3/1to2/1_2" slope="0.00"/>
        <vehicle id="17" x="2975.52" y="2004.95" angle="-90.00" type="DEFAULT_VEHTYPE" speed="3.05" pos="9.83" lane="3/2to2/2_2" slope="0.00"/>
        <vehicle id="18" x="1008.25" y="26.69" angle="180.00" type="DEFAULT_VEHTYPE" speed="4.69" pos="12.04" lane="1/0to1/1_1" slope="0.00"/>
        <vehicle id="19" x="991.75" y="2975.38" angle="0.00" type="DEFAULT_VEHTYPE" speed="3.24" pos="9.97" lane="1/3to1/2_1" slope="0.00"/>
        <vehicle id="2" x="1017.88" y="1988.45" angle="90.00" type="CarA" speed="0.06" pos="3.23" lane="1/2to2/2_0" slope="0.00"/>
        <vehicle id="28" x="1004.95" y="25.65" angle="180.00" type="DEFAULT_VEHTYPE" speed="4.03" pos="11.00" lane="1/0to1/1_2" slope="0.00"/>
        <vehicle id="29" x="995.05" y="2974.26" angle="0.00" type="DEFAULT_VEHTYPE" speed="4.10" pos="11.09" lane="1/3to1/2_2" slope="0.00"/>
        <vehicle id="3" x="17.92" y="988.45" angle="90.00" type="CarA" speed="0.08" pos="3.27" lane="0/1to1/1_0" slope="0.00"/>
        <vehicle id="38" x="1001.65" y="25.48" angle="180.00" type="DEFAULT_VEHTYPE" speed="3.72" pos="10.83" lane="1/0to1/1_3" slope="0.00"/>
        <vehicle id="39" x="998.35" y="2973.14" angle="0.00" type="DEFAULT_VEHTYPE" speed="4.84" pos="12.21" lane="1/3to1/2_3" slope="0.00"/>
        <vehicle id="4" x="2017.91" y="1988.45" angle="90.00" type="CarA" speed="0.10" pos="3.26" lane="2/2to3/2_0" slope="0.00"/>
        <vehicle id="49" x="988.45" y="2980.25" angle="0.00" type="DEFAULT_VEHTYPE" speed="0.00" pos="5.10" lane="1/3to1/2_0" slope="0.00"/>
        <vehicle id="5" x="2988.45" y="1975.59" angle="0.00" type="DEFAULT_VEHTYPE" speed="3.22" pos="9.76" lane="3/2to3/1_0" slope="0.00"/>
        <vehicle id="6" x="2973.27" y="1011.55" angle="-90.00" type="DEFAULT_VEHTYPE" speed="4.44" pos="12.08" lane="3/1to2/1_0" slope="0.00"/>
        <vehicle id="7" x="2973.64" y="2011.55" angle="-90.00" type="DEFAULT_VEHTYPE" speed="4.07" pos="11.71" lane="3/2to2/2_0" slope="0.00"/>
        <vehicle id="8" x="1011.55" y="27.23" angle="180.00" type="DEFAULT_VEHTYPE" speed="4.96" pos="12.58" lane="1/0to1/1_0" slope="0.00"/>
        <vehicle id="9" x="988.45" y="2972.67" angle="0.00" type="DEFAULT_VEHTYPE" speed="4.99" pos="12.68" lane="1/3to1/2_0" slope="0.00"/>
    </timestep>
    <timestep time="3.00">
        <vehicle id="0" x="17.98" y="1988.45" angle="90.00" type="CarA" speed="0.06" pos="3.33" lane="0/2to1/2_0" slope="0.00"/>
        <vehicle id="1" x="1011.55" y="1018.00" angle="180.00" type="CarA" speed="0.06" pos="3.35" lane="1/1to1/2_0" slope="0.00"/>
        <vehicle id="10" x="30.50" y="1995.05" angle="90.00" type="DEFAULT_VEHTYPE" speed="5.76" pos="15.85" lane="0/2to1/2_2" slope="0.00"/>
        <vehicle id="11" x="32.68" y="995.05" angle="90.00" type="DEFAULT_VEHTYPE" speed="6.68" pos="18.03" lane="0/1to1/1_2" slope="0.00"/>
        <vehicle id="12" x="30.88" y="1991.75" angle="90.00" type="DEFAULT_VEHTYPE" speed="5.42" pos="16.23" lane="0/2to1/2_1" slope="0.00"/>
        <vehicle id="13" x="34.50" y="998.35" angle="90.00" type="DEFAULT_VEHTYPE" speed="7.36" pos="19.85" lane="0/1to1/1_3" slope="0.00"/>
        <vehicle id="14" x="3001.65" y="1030.26" angle="180.00" type="DEFAULT_VEHTYPE" speed="5.14" pos="15.61" lane="3/1to3/2_3" slope="0.00"/>
        <vehicle id="15" x="2988.45" y="1980.25" angle="0.00" type="DEFAULT_VEHTYPE" speed="0.00" pos="5.10" lane="3/2to3/1_0" slope="0.00"/>
        <vehicle id="16" x="2968.91" y="1004.95" angle="-90.00" type="DEFAULT_VEHTYPE" speed="5.59" pos="16.44" lane="3/1to2/1_2" slope="0.00"/>
        <vehicle id="17" x="2970.93" y="2004.95" angle="-90.00" type="DEFAULT_VEHTYPE" speed="4.60" pos="14.42" lane="3/2to2/2_2" slope="0.00"/>
        <vehicle id="18" x="1008.25" y="33.78" angle="180.00" type="DEFAULT_VEHTYPE" speed="7.09" pos="19.13" lane="1/0to1/1_1" slope="0.00"/>
        <vehicle id="19" x="991.75" y="2969.94" angle="0.00" type="DEFAULT_VEHTYPE" speed="5.44" pos="15.41" lane="1/3to1/2_1" slope="0.00"/>
        <vehicle id="2" x="1017.98" y="1988.45" angle="90.00" type="CarA" speed="0.10" pos="3.33" lane="1/2to2/2_0" slope="0.00"/>
        <vehicle id="20" x="19.75" y="1995.05" angle="90.00" type="DEFAULT_VEHTYPE" speed="0.00" pos="5.10" lane="0/2to1/2_2" slope="0.00"/>
        <vehicle id="21" x="19.75" y="995.05" angle="90.00" type="DEFAULT_VEHTYPE" speed="0.00" pos="5.10" lane="0/1to1/1_2" slope="0.00"/>
        <vehicle id="23" x="19.75" y="998.35" angle="90.00" type="DEFAULT_VEHTYPE" speed="0.00" pos="5.10" lane="0/1to1/1_3" slope="0.00"/>
        <vehicle id="24" x="3001.65" y="1019.75" angle="180.00" type="DEFAULT_VEHTYPE" speed="0.00" pos="5.10" lane="3/1to3/2_3" slope="0.00"/>
        <vehicle id="26" x="2980.25" y="1004.95" angle="-90.00" type="DEFAULT_VEHTYPE" speed="0.00" pos="5.10" lane="3/1to2/1_2" slope="0.00"/>
        <vehicle id="27" x="2980.25" y="2004.95" angle="-90.00" type="DEFAULT_VEHTYPE" speed="0.00" pos="5.10" lane="3/2to2/2_2" slope="0.00"/>
        <vehicle id="28" x="1004.95" y="31.45" angle="180.00" type="DEFAULT_VEHTYPE" speed="5.80" pos="16.80" lane="1/0to1/1_2" slope="0.00"/>
        <vehicle id="29" x="995.05" y="2968.81" angle="0.00" type="DEFAULT_VEHTYPE" speed="5.45" pos="16.54" lane="1/3to1/2_2" slope="0.00"/>
        <vehicle id="3" x="17.98" y="988.45" angle="90.00" type="CarA" speed="0.06" pos="3.33" lane="0/1to1/1_0" slope="0.00"/>
        <vehicle id="38" x="1001.65" y="31.57" angle="180.00" type="DEFAULT_VEHTYPE" speed="6.08" pos="16.92" lane="1/0to1/1_3" slope="0.00"/>
        <vehicle id="39" x="998.35" y="2966.92" angle="0.00" type="DEFAULT_VEHTYPE" speed="6.22" pos="18.43" lane="1/3to1/2_3" slope="0.00"/>
        <vehicle id="4" x="2017.99" y="1988.45" angle="90.00" type="CarA" speed="0.08" pos="3.34" lane="2/2to3/2_0" slope="0.00"/>
        <vehicle id="48" x="1011.55" y="19.75" angle="180.00" type="DEFAULT_VEHTYPE" speed="0.00" pos="5.10" lane="1/0to1/1_0" slope="0.00"/>
        <vehicle id="49" x="988.45" y="2979.85" angle="0.00" type="DEFAULT_VEHTYPE" speed="0.40" pos="5.50" lane="1/3to1/2_0" slope="0.00"/>
        <vehicle id="5" x="2988.45" y="1970.09" angle="0.00" type="DEFAULT_VEHTYPE" speed="5.50" pos="15.26" lane="3/2to3/1_0" slope="0.00"/>
        <vehicle id="6" x="2967.01" y="1011.55" angle="-90.00" type="DEFAULT_VEHTYPE" speed="6.26" pos="18.34" lane="3/1to2/1_0" slope="0.00"/>
        <vehicle id="7" x="2967.09" y="2011.55" angle="-90.00" type="DEFAULT_VEHTYPE" speed="6.55" pos="18.26" lane="3/2to2/2_0" slope="0.00"/>
        <vehicle id="8" x="1011.55" y="34.75" angle="180.00" type="DEFAULT_VEHTYPE" speed="7.52" pos="20.10" lane="1/0to1/1_0" slope="0.00"/>
        <vehicle id="9" x="988.45" y="2965.73" angle="0.00" type="DEFAULT_VEHTYPE" speed="6.94" pos="19.62" lane="1/3to1/2_0" slope="0.00"/>
    </timestep>
    <timestep time="4.00">
        <vehicle id="0" x="18.05" y="1988.45" angle="90.00" type="CarA" speed="0.08" pos="3.40" lane="0/2to1/2_0" slope="0.00"/>
        <vehicle id="1" x="1011.55" y="1018.07" angle="180.00" type="CarA" speed="0.07" pos="3.42" lane="1/1to1/2_0" slope="0.00"/>
        <vehicle id="10" x="38.47" y="1995.05" angle="90.00" type="DEFAULT_VEHTYPE" speed="7.97" pos="23.82" lane="0/2to1/2_2" slope="0.00"/>
        <vehicle id="11" x="41.41" y="995.05" angle="90.00" type="DEFAULT_VEHTYPE" speed="8.73" pos="26.76" lane="0/1to1/1_2" slope="0.00"/>
        <vehicle id="12" x="37.75" y="1991.75" angle="90.00" type="DEFAULT_VEHTYPE" speed="6.88" pos="23.10" lane="0/2to1/2_1" slope="0.00"/>
        <vehicle id="13" x="43.26" y="998.35" angle="90.00" type="DEFAULT_VEHTYPE" speed="8.76" pos="28.61" lane="0/1to1/1_3" slope="0.00"/>
        <vehicle id="14" x="3001.65" y="1037.76" angle="180.00" type="DEFAULT_VEHTYPE" speed="7.50" pos="23.11" lane="3/1to3/2_3" slope="0.00"/>
        <vehicle id="15" x="2988.45" y="1978.09" angle="0.00" type="DEFAULT_VEHTYPE" speed="2.16" pos="7.26" lane="3/2to3/1_0" slope="0.00"/>
        <vehicle id="16" x="2960.83" y="1004.95" angle="-90.00" type="DEFAULT_VEHTYPE" speed="8.08" pos="24.52" lane="3/1to2/1_2" slope="0.00"/>
        <vehicle id="17" x="2963.84" y="2004.95" angle="-90.00" type="DEFAULT_VEHTYPE" speed="7.09" pos="21.51" lane="3/2to2/2_2" slope="0.00"/>
        <vehicle id="18" x="1008.25" y="43.00" angle="180.00" type="DEFAULT_VEHTYPE" speed="9.22" pos="28.35" lane="1/0to1/1_1" slope="0.00"/>
        <vehicle id="19" x="991.75" y="2962.46" angle="0.00" type="DEFAULT_VEHTYPE" speed="7.49" pos="22.89" lane="1/3to1/2_1" slope="0.00"/>
        <vehicle id="2" x="1018.06" y="1988.45" angle="90.00" type="CarA" speed="0.08" pos="3.41" lane="1/2to2/2_0" slope="0.00"/>
        <vehicle id="20" x="22.21" y="1995.05" angle="90.00" type="DEFAULT_VEHTYPE" speed="2.46" pos="7.56" lane="0/2to1/2_2" slope="0.00"/>
        <vehicle id="21" x="21.43" y="995.05" angle="90.00" type="DEFAULT_VEHTYPE" speed="1.68" pos="6.78" lane="0/1to1/1_2" slope="0.00"/>
        <vehicle id="23" x="21.71" y="998.35" angle="90.00" type="DEFAULT_VEHTYPE" speed="1.96" pos="7.06" lane="0/1to1/1_3" slope="0.00"/>
        <vehicle id="24" x="3001.65" y="1022.29" angle="180.00" type="DEFAULT_VEHTYPE" speed="2.54" pos="7.64" lane="3/1to3/2_3" slope="0.00"/>
        <vehicle id="26" x="2978.59" y="1004.95" angle="-90.00" type="DEFAULT_VEHTYPE" speed="1.66" pos="6.76" lane="3/1to2/1_2" slope="0.00"/>
        <vehicle id="27" x="2978.87" y="2004.95" angle="-90.00" type="DEFAULT_VEHTYPE" speed="1.38" pos="6.48" lane="3/2to2/2_2" slope="0.00"/>
        <vehicle id="28" x="1004.95" y="39.30" angle="180.00" type="DEFAULT_VEHTYPE" speed="7.86" pos="24.65" lane="1/0to1/1_2" slope="0.00"/>
        <vehicle id="29" x="995.05" y="2961.64" angle="0.00" type="DEFAULT_VEHTYPE" speed="7.17" pos="23.71" lane="1/3to1/2_2" slope="0.00"/>
        <vehicle id="3" x="18.06" y="988.45" angle="90.00" type="CarA" speed="0.09" pos="3.41" lane="0/1to1/1_0" slope="0.00"/>
        <vehicle id="38" x="1001.65" y="39.49" angle="180.00" type="DEFAULT_VEHTYPE" speed="7.92" pos="24.84" lane="1/0to1/1_3" slope="0.00"/>
        <vehicle id="39" x="998.35" y="2958.37" angle="0.00" type="DEFAULT_VEHTYPE" speed="8.54" pos="26.98" lane="1/3to1/2_3" slope="0.00"/>
        <vehicle id="4" x="2018.08" y="1988.45" angle="90.00" type="CarA" speed="0.10" pos="3.43" lane="2/2to3/2_0" slope="0.00"/>
        <vehicle id="48" x="1011.55" y="22.32" angle="180.00" type="DEFAULT_VEHTYPE" speed="2.57" pos="7.67" lane="1/0to1/1_0" slope="0.00"/>
        <vehicle id="49" x="988.45" y="2977.36" angle="0.00" type="DEFAULT_VEHTYPE" speed="2.49" pos="7.99" lane="1/3to1/2_0" slope="0.00"/>
        <vehicle id="5" x="2988.45" y="1962.39" angle="0.00" type="DEFAULT_VEHTYPE" speed="7.70" pos="22.96" lane="3/2to3/1_0" slope="0.00"/>
        <vehicle id="6" x="2958.61" y="1011.55" angle="-90.00" type="DEFAULT_VEHTYPE" speed="8.40" pos="26.74" lane="3/1to2/1_0" slope="0.00"/>
        <vehicle id="7" x="2958.20" y="2011.55" angle="-90.00" type="DEFAULT_VEHTYPE" speed="8.88" pos="27.15" lane="3/2to2/2_0" slope="0.00"/>
        <vehicle id="8" x="1011.55" y="43.61" angle="180.00" type="DEFAULT_VEHTYPE" speed="8.85" pos="28.96" lane="1/0to1/1_0" slope="0.00"/>
        <vehicle id="9" x="988.45" y="2956.98" angle="0.00" type="DEFAULT_VEHTYPE" speed="8.75" pos="28.37" lane="1/3to1/2_0" slope="0.00"/>
    </timestep>
    <timestep time="5.00">
        <vehicle id="0" x="18.15" y="1988.45" angle="90.00" type="CarA" speed="0.09" pos="3.50" lane="0/2to1/2_0" slope="0.00"/>
        <vehicle id="1" x="1011.55" y="1018.16" angle="180.00" type="CarA" speed="0.09" pos="3.51" lane="1/1to1/2_0" slope="0.00"/>
        <vehicle id="10" x="47.95" y="1995.05" angle="90.00" type="DEFAULT_VEHTYPE" speed="9.47" pos="33.30" lane="0/2to1/2_2" slope="0.00"/>
        <vehicle id="11" x="51.97" y="995.05" angle="90.00" type="DEFAULT_VEHTYPE" speed="10.56" pos="37.32" lane="0/1to1/1_2" slope="0.00"/>
        <vehicle id="12" x="46.06" y="1991.75" angle="90.00" type="DEFAULT_VEHTYPE" speed="8.30" pos="31.41" lane="0/2to1/2_1" slope="0.00"/>
        <vehicle id="13" x="53.76" y="998.35" angle="90.00" type="DEFAULT_VEHTYPE" speed="10.50" pos="39.11" lane="0/1to1/1_3" slope="0.00"/>
        <vehicle id="14" x="3001.65" y="1047.42" angle="180.00" type="DEFAULT_VEHTYPE" speed="9.66" pos="32.77" lane="3/1to3/2_3" slope="0.00"/>
        <vehicle id="15" x="2988.45" y="1974.08" angle="0.00" type="DEFAULT_VEHTYPE" speed="4.01" pos="11.27" lane="3/2to3/1_0" slope="0.00"/>
        <vehicle id="16" x="2950.28" y="1004.95" angle="-90.00" type="DEFAULT_VEHTYPE" speed="10.55" pos="35.07" lane="3/1to2/1_2" slope="0.00"/>
        <vehicle id="17" x="2955.42" y="2004.95" angle="-90.00" type="DEFAULT_VEHTYPE" speed="8.42" pos="29.93" lane="3/2to2/2_2" slope="0.00"/>
        <vehicle id="18" x="1008.25" y="54.31" angle="180.00" type="DEFAULT_VEHTYPE" speed="11.31" pos="39.66" lane="1/0to1/1_1" slope="0.00"/>
        <vehicle id="19" x="991.75" y="2952.53" angle="0.00" type="DEFAULT_VEHTYPE" speed="9.93" pos="32.82" lane="1/3to1/2_1" slope="0.00"/>
        <vehicle id="2" x="1018.13" y="1988.45" angle="90.00" type="CarA" speed="0.07" pos="3.48" lane="1/2to2/2_0" slope="0.00"/>
        <vehicle id="20" x="27.08" y="1995.05" angle="90.00" type="DEFAULT_VEHTYPE" speed="4.86" pos="12.43" lane="0/2to1/2_2" slope="0.00"/>
        <vehicle id="21" x="25.34" y="995.05" angle="90.00" type="DEFAULT_VEHTYPE" speed="3.92" pos="10.69" lane="0/1to1/1_2" slope="0.00"/>
        <vehicle id="23" x="25.71" y="998.35" angle="90.00" type="DEFAULT_VEHTYPE" speed="4.00" pos="11.06" lane="0/1to1/1_3" slope="0.00"/>
        <vehicle id="24" x="3001.65" y="1026.52" angle="180.00" type="DEFAULT_VEHTYPE" speed="4.23" pos="11.87" lane="3/1to3/2_3" slope="0.00"/>
        <vehicle id="26" x="2974.93" y="1004.95" angle="-90.00" type="DEFAULT_VEHTYPE" speed="3.66" pos="10.42" lane="3/1to2/1_2" slope="0.00"/>
        <vehicle id="27" x="2975.28" y="2004.95" angle="-90.00" type="DEFAULT_VEHTYPE" speed="3.59" pos="10.07" lane="3/2to2/2_2" slope="0.00"/>
        <vehicle id="28" x="1004.95" y="49.70" angle="180.00" type="DEFAULT_VEHTYPE" speed="10.40" pos="35.05" lane="1/0to1/1_2" slope="0.00"/>
        <vehicle id="29" x="995.05" y="2952.80" angle="0.00" type="DEFAULT_VEHTYPE" speed="8.84" pos="32.55" lane="1/3to1/2_2" slope="0.00"/>
        <vehicle id="3" x="18.15" y="988.45" angle="90.00" type="CarA" speed="0.09" pos="3.50" lane="0/1to1/1_0" slope="0.00"/>
        <vehicle id="38" x="1001.65" y="49.39" angle="180.00" type="DEFAULT_VEHTYPE" speed="9.90" pos="34.74" lane="1/0to1/1_3" slope="0.00"/>
        <vehicle id="39" x="998.35" y="2947.59" angle="0.00" type="DEFAULT_VEHTYPE" speed="10.78" pos="37.76" lane="1/3to1/2_3" slope="0.00"/>
        <vehicle id="4" x="2018.15" y="1988.45" angle="90.00" type="CarA" speed="0.07" pos="3.50" lane="2/2to3/2_0" slope="0.00"/>
        <vehicle id="48" x="1011.55" y="26.22" angle="180.00" type="DEFAULT_VEHTYPE" speed="3.90" pos="11.57" lane="1/0to1/1_0" slope="0.00"/>
        <vehicle id="49" x="988.45" y="2972.45" angle="0.00" type="DEFAULT_VEHTYPE" speed="4.91" pos="12.90" lane="1/3to1/2_0" slope="0.00"/>
        <vehicle id="5" x="2988.45" y="1953.23" angle="0.00" type="DEFAULT_VEHTYPE" speed="9.16" pos="32.12" lane="3/2to3/1_0" slope="0.00"/>
        <vehicle id="6" x="2948.46" y="1011.55" angle="-90.00" type="DEFAULT_VEHTYPE" speed="10.14" pos="36.89" lane="3/1to2/1_0" slope="0.00"/>
        <vehicle id="7" x="2947.25" y="2011.55" angle="-90.00" type="DEFAULT_VEHTYPE" speed="10.95" pos="38.10" lane="3/2to2/2_0" slope="0.00"/>
        <vehicle id="8" x="1011.55" y="54.18" angle="180.00" type="DEFAULT_VEHTYPE" speed="10.57" pos="39.53" lane="1/0to1/1_0" slope="0.00"/>
        <vehicle id="9" x="988.45" y="2946.56" angle="0.00" type="DEFAULT_VEHTYPE" speed="10.42" pos="38.79" lane="1/3to1/2_0" slope="0.00"/>
    </timestep>
    <timestep time="6.00">
        <vehicle id="0" x="18.25" y="1988.45" angle="90.00" type="CarA" speed="0.10" pos="3.60" lane="0/2to1/2_0" slope="0.00"/>
        <vehicle id="1" x="1011.55" y="1018.24" angle="180.00" type="CarA" speed="0.09" pos="3.59" lane="1/1to1/2_0" slope="0.00"/>
        <vehicle id="10" x="59.39" y="1995.05" angle="90.00" type="DEFAULT_VEHTYPE" speed="11.44" pos="44.74" lane="0/2to1/2_2" slope="0.00"/>
        <vehicle id="11" x="64.63" y="991.75" angle="90.00" type="DEFAULT_VEHTYPE" speed="12.65" pos="49.98" lane="0/1to1/1_1" slope="0.00"/>
        <vehicle id="12" x="56.42" y="1988.45" angle="90.00" type="DEFAULT_VEHTYPE" speed="10.37" pos="41.77" lane="0/2to1/2_0" slope="0.00"/>
        <vehicle id="13" x="65.75" y="998.35" angle="90.00" type="DEFAULT_VEHTYPE" speed="11.99" pos="51.10" lane="0/1to1/1_3" slope="0.00"/>
        <vehicle id="14" x="3004.95" y="1058.84" angle="180.00" type="DEFAULT_VEHTYPE" speed="11.42" pos="44.19" lane="3/1to3/2_2" slope="0.00"/>
        <vehicle id="15" x="2988.45" y="1968.23" angle="0.00" type="DEFAULT_VEHTYPE" speed="5.84" pos="17.12" lane="3/2to3/1_0" slope="0.00"/>
        <vehicle id="16" x="2938.35" y="1008.25" angle="-90.00" type="DEFAULT_VEHTYPE" speed="11.92" pos="47.00" lane="3/1to2/1_1" slope="0.00"/>
        <vehicle id="17" x="2945.14" y="2008.25" angle="-90.00" type="DEFAULT_VEHTYPE" speed="10.28" pos="40.21" lane="3/2to2/2_1" slope="0.00"/>
        <vehicle id="18" x="1008.25" y="67.36" angle="180.00" type="DEFAULT_VEHTYPE" speed="13.05" pos="52.71" lane="1/0to1/1_1" slope="0.00"/>
        <vehicle id="19" x="991.75" y="2941.18" angle="0.00" type="DEFAULT_VEHTYPE" speed="11.35" pos="44.17" lane="1/3to1/2_1" slope="0.00"/>
        <vehicle id="2" x="1018.20" y="1988.45" angle="90.00" type="CarA" speed="0.07" pos="3.55" lane="1/2to2/2_0" slope="0.00"/>
        <vehicle id="20" x="33.36" y="1995.05" angle="90.00" type="DEFAULT_VEHTYPE" speed="6.28" pos="18.71" lane="0/2to1/2_2" slope="0.00"/>
        <vehicle id="21" x="30.56" y="995.05" angle="90.00" type="DEFAULT_VEHTYPE" speed="5.22" pos="15.91" lane="0/1to1/1_2" slope="0.00"/>
        <vehicle id="22" x="19.75" y="1991.75" angle="90.00" type="DEFAULT_VEHTYPE" speed="0.00" pos="5.10" lane="0/2to1/2_1" slope="0.00"/>
        <vehicle id="23" x="31.24" y="998.35" angle="90.00" type="DEFAULT_VEHTYPE" speed="5.53" pos="16.59" lane="0/1to1/1_3" slope="0.00"/>
        <vehicle id="24" x="3001.65" y="1032.28" angle="180.00" type="DEFAULT_VEHTYPE" speed="5.76" pos="17.63" lane="3/1to3/2_3" slope="0.00"/>
        <vehicle id="25" x="2988.45" y="1980.25" angle="0.00" type="DEFAULT_VEHTYPE" speed="0.00" pos="5.10" lane="3/2to3/1_0" slope="0.00"/>
        <vehicle id="26" x="2969.39" y="1004.95" angle="-90.00" type="DEFAULT_VEHTYPE" speed="5.54" pos="15.96" lane="3/1to2/1_2" slope="0.00"/>
        <vehicle id="27" x="2969.22" y="2004.95" angle="-90.00" type="DEFAULT_VEHTYPE" speed="6.06" pos="16.13" lane="3/2to2/2_2" slope="0.00"/>
        <vehicle id="28" x="1004.95" y="62.70" angle="180.00" type="DEFAULT_VEHTYPE" speed="13.00" pos="48.05" lane="1/0to1/1_2" slope="0.00"/>
        <vehicle id="29" x="995.05" y="2941.98" angle="0.00" type="DEFAULT_VEHTYPE" speed="10.82" pos="43.37" lane="1/3to1/2_2" slope="0.00"/>
        <vehicle id="3" x="18.24" y="988.45" angle="90.00" type="CarA" speed="0.09" pos="3.59" lane="0/1to1/1_0" slope="0.00"/>
        <vehicle id="30" x="19.75" y="1995.05" angle="90.00" type="DEFAULT_VEHTYPE" speed="0.00" pos="5.10" lane="0/2to1/2_2" slope="0.00"/>
        <vehicle id="31" x="19.75" y="995.05" angle="90.00" type="DEFAULT_VEHTYPE" speed="0.00" pos="5.10" lane="0/1to1/1_2" slope="0.00"/>
        <vehicle id="34" x="3001.65" y="1019.75" angle="180.00" type="DEFAULT_VEHTYPE" speed="0.00" pos="5.10" lane="3/1to3/2_3" slope="0.00"/>
        <vehicle id="36" x="2980.25" y="1004.95" angle="-90.00" type="DEFAULT_VEHTYPE" speed="0.00" pos="5.10" lane="3/1to2/1_2" slope="0.00"/>
        <vehicle id="37" x="2980.25" y="2004.95" angle="-90.00" type="DEFAULT_VEHTYPE" speed="0.00" pos="5.10" lane="3/2to2/2_2" slope="0.00"/>
        <vehicle id="38" x="1001.65" y="61.45" angle="180.00" type="DEFAULT_VEHTYPE" speed="12.06" pos="46.80" lane="1/0to1/1_3" slope="0.00"/>
        <vehicle id="39" x="998.35" y="2935.37" angle="0.00" type="DEFAULT_VEHTYPE" speed="12.23" pos="49.98" lane="1/3to1/2_3" slope="0.00"/>
        <vehicle id="4" x="2018.21" y="1988.45" angle="90.00" type="CarA" speed="0.06" pos="3.56" lane="2/2to3/2_0" slope="0.00"/>
        <vehicle id="48" x="1011.55" y="32.70" angle="180.00" type="DEFAULT_VEHTYPE" speed="6.48" pos="18.05" lane="1/0to1/1_0" slope="0.00"/>
        <vehicle id="49" x="988.45" y="2965.39" angle="0.00" type="DEFAULT_VEHTYPE" speed="7.06" pos="19.96" lane="1/3to1/2_0" slope="0.00"/>
        <vehicle id="5" x="2988.45" y="1942.35" angle="0.00" type="DEFAULT_VEHTYPE" speed="10.88" pos="43.00" lane="3/2to3/1_0" slope="0.00"/>
        <vehicle id="6" x="2935.74" y="1011.55" angle="-90.00" type="DEFAULT_VEHTYPE" speed="12.72" pos="49.61" lane="3/1to2/1_0" slope="0.00"/>
        <vehicle id="7" x="2934.82" y="2011.55" angle="-90.00" type="DEFAULT_VEHTYPE" speed="12.44" pos="50.53" lane="3/2to2/2_0" slope="0.00"/>
        <vehicle id="8" x="1011.55" y="66.16" angle="180.00" type="DEFAULT_VEHTYPE" speed="11.98" pos="51.51" lane="1/0to1/1_0" slope="0.00"/>
        <vehicle id="9" x="988.45" y="2933.76" angle="0.00" type="DEFAULT_VEHTYPE" speed="12.80" pos="51.59" lane="1/3to1/2_0" slope="0.00"/>
    </timestep>
    <timestep time="7.00">