<?xml version="1.0" encoding="UTF-8"?>

<!-- generated on 03/16/16 22:31:13 by SUMO Version 0.23.0
<?xml version="1.0" encoding="UTF-8"?>

<configuration xmlns:xsi="http://www.w3.org/2001/XMLSchema-instance" xsi:noNamespaceSchemaLocation="http://sumo.dlr.de/xsd/sumoConfiguration.xsd">

    <input>
        <net-file value="input_net.net.xml"/>
        <route-files value="routes.rou.xml"/>
    </input>

    <output>
        <fcd-output value="fcdoutput.xml"/>
    </output>

</configuration>
-->

<fcd-export xmlns:xsi="http://www.w3.org/2001/XMLSchema-instance" xsi:noNamespaceSchemaLocation="http://sumo.dlr.de/xsd/fcd_file.xsd">
    <timestep time="0.00">
        <vehicle id="0" x="-4.95" y="39.69" angle="0.00" type="DEFAULT_VEHTYPE" speed="0.00" pos="5.10" lane="0/1to0/0_0" slope="0.00"/>
        <vehicle id="1" x="39.69" y="54.95" angle="-90.00" type="DEFAULT_VEHTYPE" speed="0.00" pos="5.10" lane="1/1to0/1_0" slope="0.00"/>
    </timestep>
    <timestep time="1.00">
        <vehicle id="0" x="-1.65" y="38.45" angle="0.00" type="DEFAULT_VEHTYPE" speed="1.67" pos="6.77" lane="0/1to0/0_1" slope="0.00"/>
        <vehicle id="1" x="38.62" y="54.95" angle="-90.00" type="DEFAULT_VEHTYPE" speed="1.44" pos="6.54" lane="1/1to0/1_0" slope="0.00"/>
    </timestep>
    <timestep time="2.00">
        <vehicle id="0" x="-1.65" y="35.34" angle="0.00" type="DEFAULT_VEHTYPE" speed="4.21" pos="10.99" lane="0/1to0/0_1" slope="0.00"/>
        <vehicle id="1" x="36.11" y="54.95" angle="-90.00" type="DEFAULT_VEHTYPE" speed="3.40" pos="9.94" lane="1/1to0/1_0" slope="0.00"/>
    </timestep>
    <timestep time="3.00">
        <vehicle id="0" x="-1.65" y="30.88" angle="0.00" type="DEFAULT_VEHTYPE" speed="6.05" pos="17.04" lane="0/1to0/0_1" slope="0.00"/>
        <vehicle id="1" x="31.72" y="54.95" angle="-90.00" type="DEFAULT_VEHTYPE" speed="5.95" pos="15.89" lane="1/1to0/1_0" slope="0.00"/>
    </timestep>
    <timestep time="4.00">
        <vehicle id="0" x="-1.65" y="25.21" angle="0.00" type="DEFAULT_VEHTYPE" speed="7.68" pos="24.72" lane="0/1to0/0_1" slope="0.00"/>
        <vehicle id="1" x="25.65" y="54.95" angle="-90.00" type="DEFAULT_VEHTYPE" speed="8.22" pos="24.11" lane="1/1to0/1_0" slope="0.00"/>
    </timestep>
    <timestep time="5.00">
        <vehicle id="0" x="-1.65" y="18.14" angle="0.00" type="DEFAULT_VEHTYPE" speed="9.57" pos="34.29" lane="0/1to0/0_1" slope="0.00"/>
        <vehicle id="1" x="18.38" y="54.95" angle="-90.00" type="DEFAULT_VEHTYPE" speed="9.86" pos="33.97" lane="1/1to0/1_0" slope="0.00"/>
    </timestep>
    <timestep time="6.00">
        <vehicle id="0" x="-1.65" y="10.99" angle="0.00" type="DEFAULT_VEHTYPE" speed="9.70" pos="43.99" lane="0/1to0/0_1" slope="0.00"/>
        <vehicle id="1" x="9.83" y="54.95" angle="-90.00" type="DEFAULT_VEHTYPE" speed="11.58" pos="45.55" lane="1/1to0/1_0" slope="0.00"/>
    </timestep>
    <timestep time="7.00">
        <vehicle id="0" x="-1.65" y="7.15" angle="0.00" type="DEFAULT_VEHTYPE" speed="5.20" pos="49.18" lane="0/1to0/0_1" slope="0.00"/>
        <vehicle id="1" x="-4.95" y="36.70" angle="0.00" type="DEFAULT_VEHTYPE" speed="13.59" pos="9.14" lane="0/1to0/0_0" slope="0.00"/>
    </timestep>
    <timestep time="8.00">
        <vehicle id="0" x="1.65" y="11.44" angle="180.00" type="DEFAULT_VEHTYPE" speed="7.45" pos="6.63" lane="0/0to0/1_1" slope="0.00"/>
        <vehicle id="1" x="-4.95" y="25.29" angle="0.00" type="DEFAULT_VEHTYPE" speed="15.46" pos="24.60" lane="0/1to0/0_0" slope="0.00"/>
    </timestep>
    <timestep time="9.00">
        <vehicle id="0" x="1.65" y="18.80" angle="180.00" type="DEFAULT_VEHTYPE" speed="9.97" pos="16.60" lane="0/0to0/1_1" slope="0.00"/>
        <vehicle id="1" x="-4.95" y="12.81" angle="0.00" type="DEFAULT_VEHTYPE" speed="16.92" pos="41.52" lane="0/1to0/0_0" slope="0.00"/>
    </timestep>
    <timestep time="10.00">
        <vehicle id="0" x="1.65" y="27.77" angle="180.00" type="DEFAULT_VEHTYPE" speed="12.15" pos="28.76" lane="0/0to0/1_1" slope="0.00"/>
        <vehicle id="1" x="14.04" y="-4.95" angle="90.00" type="DEFAULT_VEHTYPE" speed="18.63" pos="10.15" lane="0/0to1/0_0" slope="0.00"/>
    </timestep>
    <timestep time="11.00">
        <vehicle id="0" x="1.65" y="38.17" angle="180.00" type="DEFAULT_VEHTYPE" speed="14.09" pos="42.85" lane="0/0to0/1_1" slope="0.00"/>
        <vehicle id="1" x="28.76" y="-4.95" angle="90.00" type="DEFAULT_VEHTYPE" speed="19.94" pos="30.09" lane="0/0to1/0_0" slope="0.00"/>
    </timestep>
    <timestep time="12.00">
        <vehicle id="0" x="12.98" y="48.35" angle="90.00" type="DEFAULT_VEHTYPE" speed="15.86" pos="8.71" lane="0/1to1/1_1" slope="0.00"/>
        <vehicle id="1" x="43.22" y="-4.95" angle="90.00" type="DEFAULT_VEHTYPE" speed="19.60" pos="49.69" lane="0/0to1/0_0" slope="0.00"/>
    </timestep>
    <timestep time="13.00">
        <vehicle id="0" x="24.49" y="48.35" angle="90.00" type="DEFAULT_VEHTYPE" speed="15.60" pos="24.31" lane="0/1to1/1_1" slope="0.00"/>
    </timestep>
    <timestep time="14.00">
        <vehicle id="0" x="33.03" y="48.35" angle="90.00" type="DEFAULT_VEHTYPE" speed="11.58" pos="35.89" lane="0/1to1/1_1" slope="0.00"/>
    </timestep>
    <timestep time="15.00">
        <vehicle id="0" x="39.15" y="48.35" angle="90.00" type="DEFAULT_VEHTYPE" speed="8.29" pos="44.18" lane="0/1to1/1_1" slope="0.00"/>
    </timestep>
    <timestep time="16.00">
        <vehicle id="0" x="42.07" y="48.35" angle="90.00" type="DEFAULT_VEHTYPE" speed="3.95" pos="48.13" lane="0/1to1/1_1" slope="0.00"/>
    </timestep>
    <timestep time="17.00">
        <vehicle id="0" x="42.64" y="48.35" angle="90.00" type="DEFAULT_VEHTYPE" speed="0.77" pos="48.90" lane="0/1to1/1_1" slope="0.00"/>
    </timestep>
    <timestep time="18.00">
        <vehicle id="0" x="42.71" y="48.35" angle="90.00" type="DEFAULT_VEHTYPE" speed="0.10" pos="49.00" lane="0/1to1/1_1" slope="0.00"/>
    </timestep>
    <timestep time="19.00">
        <vehicle id="0" x="42.71" y="48.35" angle="90.00" type="DEFAULT_VEHTYPE" speed="0.00" pos="49.00" lane="0/1to1/1_1" slope="0.00"/>
    </timestep>
    <timestep time="20.00">
        <vehicle id="0" x="42.71" y="48.35" angle="90.00" type="DEFAULT_VEHTYPE" speed="0.00" pos="49.00" lane="0/1to1/1_1" slope="0.00"/>
    </timestep>
    <timestep time="21.00">
        <vehicle id="0" x="42.71" y="48.35" angle="90.00" type="DEFAULT_VEHTYPE" speed="0.00" pos="49.00" lane="0/1to1/1_1" slope="0.00"/>
    </timestep>
    <timestep time="22.00">
        <vehicle id="0" x="42.71" y="48.35" angle="90.00" type="DEFAULT_VEHTYPE" speed="0.00" pos="49.00" lane="0/1to1/1_1" slope="0.00"/>
    </timestep>
    <timestep time="23.00">
        <vehicle id="0" x="42.71" y="48.35" angle="90.00" type="DEFAULT_VEHTYPE" speed="0.00" pos="49.00" lane="0/1to1/1_1" slope="0.00"/>
    </timestep>
    <timestep time="24.00">
        <vehicle id="0" x="42.71" y="48.35" angle="90.00" type="DEFAULT_VEHTYPE" speed="0.00" pos="49.00" lane="0/1to1/1_1" slope="0.00"/>
    </timestep>
    <timestep time="25.00">
        <vehicle id="0" x="42.71" y="48.35" angle="90.00" type="DEFAULT_VEHTYPE" speed="0.00" pos="49.00" lane="0/1to1/1_1" slope="0.00"/>
    </timestep>
    <timestep time="26.00">
        <vehicle id="0" x="42.71" y="48.35" angle="90.00" type="DEFAULT_VEHTYPE" speed="0.00" pos="49.00" lane="0/1to1/1_1" slope="0.00"/>
    </timestep>
    <timestep time="27.00">
        <vehicle id="0" x="42.71" y="48.35" angle="90.00" type="DEFAULT_VEHTYPE" speed="0.00" pos="49.00" lane="0/1to1/1_1" slope="0.00"/>
    </timestep>
    <timestep time="28.00">
        <vehicle id="0" x="42.71" y="48.35" angle="90.00" type="DEFAULT_VEHTYPE" speed="0.00" pos="49.00" lane="0/1to1/1_1" slope="0.00"/>
    </timestep>
    <timestep time="29.00">
        <vehicle id="0" x="42.71" y="48.35" angle="90.00" type="DEFAULT_VEHTYPE" speed="0.00" pos="49.00" lane="0/1to1/1_1" slope="0.00"/>
    </timestep>
    <timestep time="30.00">
        <vehicle id="0" x="42.71" y="48.35" angle="90.00" type="DEFAULT_VEHTYPE" speed="0.00" pos="49.00" lane="0/1to1/1_1" slope="0.00"/>
    </timestep>
    <timestep time="31.00">
        <vehicle id="0" x="42.71" y="48.35" angle="90.00" type="DEFAULT_VEHTYPE" speed="0.00" pos="49.00" lane="0/1to1/1_1" slope="0.00"/>
    </timestep>
    <timestep time="32.00">
        <vehicle id="0" x="42.71" y="48.35" angle="90.00" type="DEFAULT_VEHTYPE" speed="0.00" pos="49.00" lane="0/1to1/1_1" slope="0.00"/>
    </timestep>
    <timestep time="33.00">
        <vehicle id="0" x="42.71" y="48.35" angle="90.00" type="DEFAULT_VEHTYPE" speed="0.00" pos="49.00" lane="0/1to1/1_1" slope="0.00"/>
    </timestep>
    <timestep time="34.00">
        <vehicle id="0" x="42.71" y="48.35" angle="90.00" type="DEFAULT_VEHTYPE" speed="0.00" pos="49.00" lane="0/1to1/1_1" slope="0.00"/>
    </timestep>
    <timestep time="35.00">
        <vehicle id="0" x="42.71" y="48.35" angle="90.00" type="DEFAULT_VEHTYPE" speed="0.00" pos="49.00" lane="0/1to1/1_1" slope="0.00"/>
    </timestep>
    <timestep time="36.00">
        <vehicle id="0" x="42.71" y="48.35" angle="90.00" type="DEFAULT_VEHTYPE" speed="0.00" pos="49.00" lane="0/1to1/1_1" slope="0.00"/>
    </timestep>
    <timestep time="37.00">
        <vehicle id="0" x="42.91" y="51.65" angle="141.64" type="DEFAULT_VEHTYPE" speed="1.73" pos="0.73" lane="1/1to0/1_1" slope="0.00"/>
    </timestep>
    <timestep time="38.00">
        <vehicle id="0" x="40.40" y="51.65" angle="-143.88" type="DEFAULT_VEHTYPE" speed="3.40" pos="4.13" lane="1/1to0/1_1" slope="0.00"/>
    </timestep>
    <timestep time="39.00">
        <vehicle id="0" x="36.54" y="51.65" angle="-90.00" type="DEFAULT_VEHTYPE" speed="5.23" pos="9.36" lane="1/1to0/1_1" slope="0.00"/>
    </timestep>
    <timestep time="40.00">
        <vehicle id="0" x="31.43" y="51.65" angle="-90.00" type="DEFAULT_VEHTYPE" speed="6.93" pos="16.28" lane="1/1to0/1_1" slope="0.00"/>
    </timestep>
    <timestep time="41.00">
        <vehicle id="0" x="25.30" y="51.65" angle="-90.00" type="DEFAULT_VEHTYPE" speed="8.31" pos="24.60" lane="1/1to0/1_1" slope="0.00"/>
    </timestep>
    <timestep time="42.00">
        <vehicle id="0" x="18.17" y="51.65" angle="-90.00" type="DEFAULT_VEHTYPE" speed="9.66" pos="34.26" lane="1/1to0/1_1" slope="0.00"/>
    </timestep>
    <timestep time="43.00">
        <vehicle id="0" x="9.41" y="51.65" angle="-90.00" type="DEFAULT_VEHTYPE" speed="11.86" pos="46.12" lane="1/1to0/1_1" slope="0.00"/>
    </timestep>
    <timestep time="44.00"/>
</fcd-export>
