<?xml version="1.0" encoding="UTF-8"?>

<!-- generated on 04/25/15 03:36:03 by SUMO sumo Version 0.17.1
<?xml version="1.0" encoding="UTF-8"?>

<configuration xmlns:xsi="http://www.w3.org/2001/XMLSchema-instance" xsi:noNamespaceSchemaLocation="http://sumo.sf.net/xsd/sumoConfiguration.xsd">

    <input>
        <net-file value="input_net.net.xml"/>
        <route-files value="routes.rou.xml"/>
    </input>

    <output>
        <fcd-output value="fcdoutput.xml"/>
    </output>

</configuration>
-->

<fcd-export>
    <timestep time="0.00">
        <vehicle id="0" x="19.75" y="1988.45" angle="90.00" type="DEFAULT_VEHTYPE" speed="0.00" pos="5.10" lane="0/2to1/2_0" slope="0.00"/>
        <vehicle id="1" x="19.75" y="1991.75" angle="90.00" type="DEFAULT_VEHTYPE" speed="0.00" pos="5.10" lane="0/2to1/2_1" slope="0.00"/>
        <vehicle id="13" x="19.75" y="998.35" angle="90.00" type="DEFAULT_VEHTYPE" speed="0.00" pos="5.10" lane="0/1to1/1_3" slope="0.00"/>
        <vehicle id="14" x="3001.65" y="1019.75" angle="180.00" type="DEFAULT_VEHTYPE" speed="0.00" pos="5.10" lane="3/1to3/2_3" slope="0.00"/>
        <vehicle id="16" x="2980.25" y="1004.95" angle="-90.00" type="DEFAULT_VEHTYPE" speed="0.00" pos="5.10" lane="3/1to2/1_2" slope="0.00"/>
        <vehicle id="17" x="2980.25" y="2004.95" angle="-90.00" type="DEFAULT_VEHTYPE" speed="0.00" pos="5.10" lane="3/2to2/2_2" slope="0.00"/>
        <vehicle id="18" x="1008.25" y="19.75" angle="180.00" type="DEFAULT_VEHTYPE" speed="0.00" pos="5.10" lane="1/0to1/1_1" slope="0.00"/>
        <vehicle id="19" x="991.75" y="2980.25" angle="0.00" type="DEFAULT_VEHTYPE" speed="0.00" pos="5.10" lane="1/3to1/2_1" slope="0.00"/>
        <vehicle id="2" x="19.75" y="1995.05" angle="90.00" type="DEFAULT_VEHTYPE" speed="0.00" pos="5.10" lane="0/2to1/2_2" slope="0.00"/>
        <vehicle id="28" x="1004.95" y="19.75" angle="180.00" type="DEFAULT_VEHTYPE" speed="0.00" pos="5.10" lane="1/0to1/1_2" slope="0.00"/>
        <vehicle id="29" x="995.05" y="2980.25" angle="0.00" type="DEFAULT_VEHTYPE" speed="0.00" pos="5.10" lane="1/3to1/2_2" slope="0.00"/>
        <vehicle id="3" x="19.75" y="995.05" angle="90.00" type="DEFAULT_VEHTYPE" speed="0.00" pos="5.10" lane="0/1to1/1_2" slope="0.00"/>
        <vehicle id="38" x="1001.65" y="19.75" angle="180.00" type="DEFAULT_VEHTYPE" speed="0.00" pos="5.10" lane="1/0to1/1_3" slope="0.00"/>
        <vehicle id="39" x="998.35" y="2980.25" angle="0.00" type="DEFAULT_VEHTYPE" speed="0.00" pos="5.10" lane="1/3to1/2_3" slope="0.00"/>
        <vehicle id="4" x="19.75" y="1998.35" angle="90.00" type="DEFAULT_VEHTYPE" speed="0.00" pos="5.10" lane="0/2to1/2_3" slope="0.00"/>
        <vehicle id="5" x="2988.45" y="1980.25" angle="0.00" type="DEFAULT_VEHTYPE" speed="0.00" pos="5.10" lane="3/2to3/1_0" slope="0.00"/>
        <vehicle id="6" x="2980.25" y="1011.55" angle="-90.00" type="DEFAULT_VEHTYPE" speed="0.00" pos="5.10" lane="3/1to2/1_0" slope="0.00"/>
        <vehicle id="7" x="2980.25" y="2011.55" angle="-90.00" type="DEFAULT_VEHTYPE" speed="0.00" pos="5.10" lane="3/2to2/2_0" slope="0.00"/>
        <vehicle id="8" x="1011.55" y="19.75" angle="180.00" type="DEFAULT_VEHTYPE" speed="0.00" pos="5.10" lane="1/0to1/1_0" slope="0.00"/>
        <vehicle id="9" x="988.45" y="2980.25" angle="0.00" type="DEFAULT_VEHTYPE" speed="0.00" pos="5.10" lane="1/3to1/2_0" slope="0.00"/>
    </timestep>
    <timestep time="1.00">
        <vehicle id="0" x="21.21" y="1988.45" angle="90.00" type="DEFAULT_VEHTYPE" speed="1.46" pos="6.56" lane="0/2to1/2_0" slope="0.00"/>
        <vehicle id="1" x="22.27" y="1991.75" angle="90.00" type="DEFAULT_VEHTYPE" speed="2.52" pos="7.62" lane="0/2to1/2_1" slope="0.00"/>
        <vehicle id="13" x="21.93" y="998.35" angle="90.00" type="DEFAULT_VEHTYPE" speed="2.18" pos="7.28" lane="0/1to1/1_3" slope="0.00"/>
        <vehicle id="14" x="3001.65" y="1021.71" angle="180.00" type="DEFAULT_VEHTYPE" speed="1.96" pos="7.06" lane="3/1to3/2_3" slope="0.00"/>
        <vehicle id="16" x="2978.42" y="1004.95" angle="-90.00" type="DEFAULT_VEHTYPE" speed="1.83" pos="6.93" lane="3/1to2/1_2" slope="0.00"/>
        <vehicle id="17" x="2978.58" y="2004.95" angle="-90.00" type="DEFAULT_VEHTYPE" speed="1.67" pos="6.77" lane="3/2to2/2_2" slope="0.00"/>
        <vehicle id="18" x="1008.25" y="21.74" angle="180.00" type="DEFAULT_VEHTYPE" speed="1.99" pos="7.09" lane="1/0to1/1_1" slope="0.00"/>
        <vehicle id="19" x="991.75" y="2978.36" angle="0.00" type="DEFAULT_VEHTYPE" speed="1.89" pos="6.99" lane="1/3to1/2_1" slope="0.00"/>
        <vehicle id="2" x="22.01" y="1995.05" angle="90.00" type="DEFAULT_VEHTYPE" speed="2.26" pos="7.36" lane="0/2to1/2_2" slope="0.00"/>
        <vehicle id="28" x="1004.95" y="21.48" angle="180.00" type="DEFAULT_VEHTYPE" speed="1.73" pos="6.83" lane="1/0to1/1_2" slope="0.00"/>
        <vehicle id="29" x="995.05" y="2977.97" angle="0.00" type="DEFAULT_VEHTYPE" speed="2.28" pos="7.38" lane="1/3to1/2_2" slope="0.00"/>
        <vehicle id="3" x="21.46" y="995.05" angle="90.00" type="DEFAULT_VEHTYPE" speed="1.71" pos="6.81" lane="0/1to1/1_2" slope="0.00"/>
        <vehicle id="38" x="1001.65" y="22.34" angle="180.00" type="DEFAULT_VEHTYPE" speed="2.59" pos="7.69" lane="1/0to1/1_3" slope="0.00"/>
        <vehicle id="39" x="998.35" y="2978.62" angle="0.00" type="DEFAULT_VEHTYPE" speed="1.63" pos="6.73" lane="1/3to1/2_3" slope="0.00"/>
        <vehicle id="4" x="21.61" y="1998.35" angle="90.00" type="DEFAULT_VEHTYPE" speed="1.86" pos="6.96" lane="0/2to1/2_3" slope="0.00"/>
        <vehicle id="5" x="2988.45" y="1978.81" angle="0.00" type="DEFAULT_VEHTYPE" speed="1.44" pos="6.54" lane="3/2to3/1_0" slope="0.00"/>
        <vehicle id="6" x="2977.71" y="1011.55" angle="-90.00" type="DEFAULT_VEHTYPE" speed="2.54" pos="7.64" lane="3/1to2/1_0" slope="0.00"/>
        <vehicle id="7" x="2977.71" y="2011.55" angle="-90.00" type="DEFAULT_VEHTYPE" speed="2.54" pos="7.64" lane="3/2to2/2_0" slope="0.00"/>
        <vehicle id="8" x="1011.55" y="21.76" angle="180.00" type="DEFAULT_VEHTYPE" speed="2.01" pos="7.11" lane="1/0to1/1_0" slope="0.00"/>
        <vehicle id="9" x="988.45" y="2978.62" angle="0.00" type="DEFAULT_VEHTYPE" speed="1.63" pos="6.73" lane="1/3to1/2_0" slope="0.00"/>
    </timestep>
    <timestep time="2.00">
        <vehicle id="0" x="24.84" y="1988.45" angle="90.00" type="DEFAULT_VEHTYPE" speed="3.63" pos="10.19" lane="0/2to1/2_0" slope="0.00"/>
        <vehicle id="1" x="26.50" y="1991.75" angle="90.00" type="DEFAULT_VEHTYPE" speed="4.23" pos="11.85" lane="0/2to1/2_1" slope="0.00"/>
        <vehicle id="13" x="26.54" y="998.35" angle="90.00" type="DEFAULT_VEHTYPE" speed="4.61" pos="11.89" lane="0/1to1/1_3" slope="0.00"/>
        <vehicle id="14" x="3001.65" y="1025.45" angle="180.00" type="DEFAULT_VEHTYPE" speed="3.74" pos="10.80" lane="3/1to3/2_3" slope="0.00"/>
        <vehicle id="16" x="2975.20" y="1004.95" angle="-90.00" type="DEFAULT_VEHTYPE" speed="3.21" pos="10.15" lane="3/1to2/1_2" slope="0.00"/>
        <vehicle id="17" x="2974.97" y="2004.95" angle="-90.00" type="DEFAULT_VEHTYPE" speed="3.61" pos="10.38" lane="3/2to2/2_2" slope="0.00"/>
        <vehicle id="18" x="1008.25" y="25.34" angle="180.00" type="DEFAULT_VEHTYPE" speed="3.60" pos="10.69" lane="1/0to1/1_1" slope="0.00"/>
        <vehicle id="19" x="991.75" y="2974.58" angle="0.00" type="DEFAULT_VEHTYPE" speed="3.78" pos="10.77" lane="1/3to1/2_1" slope="0.00"/>
        <vehicle id="2" x="26.82" y="1995.05" angle="90.00" type="DEFAULT_VEHTYPE" speed="4.82" pos="12.17" lane="0/2to1/2_2" slope="0.00"/>
        <vehicle id="28" x="1004.95" y="25.41" angle="180.00" type="DEFAULT_VEHTYPE" speed="3.93" pos="10.76" lane="1/0to1/1_2" slope="0.00"/>
        <vehicle id="29" x="995.05" y="2973.61" angle="0.00" type="DEFAULT_VEHTYPE" speed="4.36" pos="11.74" lane="1/3to1/2_2" slope="0.00"/>
        <vehicle id="3" x="25.61" y="995.05" angle="90.00" type="DEFAULT_VEHTYPE" speed="4.15" pos="10.96" lane="0/1to1/1_2" slope="0.00"/>
        <vehicle id="38" x="1001.65" y="27.49" angle="180.00" type="DEFAULT_VEHTYPE" speed="5.15" pos="12.84" lane="1/0to1/1_3" slope="0.00"/>
        <vehicle id="39" x="998.35" y="2975.54" angle="0.00" type="DEFAULT_VEHTYPE" speed="3.08" pos="9.81" lane="1/3to1/2_3" slope="0.00"/>
        <vehicle id="4" x="24.83" y="1998.35" angle="90.00" type="DEFAULT_VEHTYPE" speed="3.22" pos="10.18" lane="0/2to1/2_3" slope="0.00"/>
        <vehicle id="5" x="2988.45" y="1974.83" angle="0.00" type="DEFAULT_VEHTYPE" speed="3.98" pos="10.52" lane="3/2to3/1_0" slope="0.00"/>
        <vehicle id="6" x="2973.63" y="1011.55" angle="-90.00" type="DEFAULT_VEHTYPE" speed="4.07" pos="11.72" lane="3/1to2/1_0" slope="0.00"/>
        <vehicle id="7" x="2972.97" y="2011.55" angle="-90.00" type="DEFAULT_VEHTYPE" speed="4.74" pos="12.38" lane="3/2to2/2_0" slope="0.00"/>
        <vehicle id="8" x="1011.55" y="26.17" angle="180.00" type="DEFAULT_VEHTYPE" speed="4.41" pos="11.52" lane="1/0to1/1_0" slope="0.00"/>
        <vehicle id="9" x="988.45" y="2974.70" angle="0.00" type="DEFAULT_VEHTYPE" speed="3.92" pos="10.65" lane="1/3to1/2_0" slope="0.00"/>
    </timestep>
    <timestep time="3.00">
        <vehicle id="0" x="30.32" y="1988.45" angle="90.00" type="DEFAULT_VEHTYPE" speed="5.48" pos="15.67" lane="0/2to1/2_0" slope="0.00"/>
        <vehicle id="1" x="32.69" y="1991.75" angle="90.00" type="DEFAULT_VEHTYPE" speed="6.19" pos="18.04" lane="0/2to1/2_1" slope="0.00"/>
        <vehicle id="10" x="19.75" y="1995.05" angle="90.00" type="DEFAULT_VEHTYPE" speed="0.00" pos="5.10" lane="0/2to1/2_2" slope="0.00"/>
        <vehicle id="11" x="19.75" y="995.05" angle="90.00" type="DEFAULT_VEHTYPE" speed="0.00" pos="5.10" lane="0/1to1/1_2" slope="0.00"/>
        <vehicle id="12" x="19.75" y="1988.45" angle="90.00" type="DEFAULT_VEHTYPE" speed="0.00" pos="5.10" lane="0/2to1/2_0" slope="0.00"/>
        <vehicle id="13" x="33.54" y="998.35" angle="90.00" type="DEFAULT_VEHTYPE" speed="6.99" pos="18.89" lane="0/1to1/1_3" slope="0.00"/>
        <vehicle id="14" x="3001.65" y="1031.50" angle="180.00" type="DEFAULT_VEHTYPE" speed="6.05" pos="16.85" lane="3/1to3/2_3" slope="0.00"/>
        <vehicle id="15" x="2988.45" y="1980.25" angle="0.00" type="DEFAULT_VEHTYPE" speed="0.00" pos="5.10" lane="3/2to3/1_0" slope="0.00"/>
        <vehicle id="16" x="2969.61" y="1004.95" angle="-90.00" type="DEFAULT_VEHTYPE" speed="5.59" pos="15.74" lane="3/1to2/1_2" slope="0.00"/>
        <vehicle id="17" x="2970.02" y="2004.95" angle="-90.00" type="DEFAULT_VEHTYPE" speed="4.95" pos="15.33" lane="3/2to2/2_2" slope="0.00"/>
        <vehicle id="18" x="1008.25" y="30.65" angle="180.00" type="DEFAULT_VEHTYPE" speed="5.30" pos="16.00" lane="1/0to1/1_1" slope="0.00"/>
        <vehicle id="19" x="991.75" y="2968.31" angle="0.00" type="DEFAULT_VEHTYPE" speed="6.27" pos="17.04" lane="1/3to1/2_1" slope="0.00"/>
        <vehicle id="2" x="33.84" y="1995.05" angle="90.00" type="DEFAULT_VEHTYPE" speed="7.02" pos="19.19" lane="0/2to1/2_2" slope="0.00"/>
        <vehicle id="22" x="19.75" y="1991.75" angle="90.00" type="DEFAULT_VEHTYPE" speed="0.00" pos="5.10" lane="0/2to1/2_1" slope="0.00"/>
        <vehicle id="23" x="19.75" y="998.35" angle="90.00" type="DEFAULT_VEHTYPE" speed="0.00" pos="5.10" lane="0/1to1/1_3" slope="0.00"/>
        <vehicle id="24" x="3001.65" y="1019.75" angle="180.00" type="DEFAULT_VEHTYPE" speed="0.00" pos="5.10" lane="3/1to3/2_3" slope="0.00"/>
        <vehicle id="26" x="2980.25" y="1004.95" angle="-90.00" type="DEFAULT_VEHTYPE" speed="0.00" pos="5.10" lane="3/1to2/1_2" slope="0.00"/>
        <vehicle id="27" x="2980.25" y="2004.95" angle="-90.00" type="DEFAULT_VEHTYPE" speed="0.00" pos="5.10" lane="3/2to2/2_2" slope="0.00"/>
        <vehicle id="28" x="1004.95" y="31.17" angle="180.00" type="DEFAULT_VEHTYPE" speed="5.76" pos="16.52" lane="1/0to1/1_2" slope="0.00"/>
        <vehicle id="29" x="995.05" y="2967.70" angle="0.00" type="DEFAULT_VEHTYPE" speed="5.91" pos="17.65" lane="1/3to1/2_2" slope="0.00"/>
        <vehicle id="3" x="31.12" y="995.05" angle="90.00" type="DEFAULT_VEHTYPE" speed="5.51" pos="16.47" lane="0/1to1/1_2" slope="0.00"/>
        <vehicle id="38" x="1001.65" y="34.31" angle="180.00" type="DEFAULT_VEHTYPE" speed="6.82" pos="19.66" lane="1/0to1/1_3" slope="0.00"/>
        <vehicle id="39" x="998.35" y="2970.17" angle="0.00" type="DEFAULT_VEHTYPE" speed="5.37" pos="15.18" lane="1/3to1/2_3" slope="0.00"/>
        <vehicle id="4" x="29.41" y="1998.35" angle="90.00" type="DEFAULT_VEHTYPE" speed="4.57" pos="14.76" lane="0/2to1/2_3" slope="0.00"/>
        <vehicle id="48" x="1011.55" y="19.75" angle="180.00" type="DEFAULT_VEHTYPE" speed="0.00" pos="5.10" lane="1/0to1/1_0" slope="0.00"/>
        <vehicle id="49" x="988.45" y="2980.25" angle="0.00" type="DEFAULT_VEHTYPE" speed="0.00" pos="5.10" lane="1/3to1/2_0" slope="0.00"/>
        <vehicle id="5" x="2988.45" y="1968.78" angle="0.00" type="DEFAULT_VEHTYPE" speed="6.05" pos="16.57" lane="3/2to3/1_0" slope="0.00"/>
        <vehicle id="6" x="2967.71" y="1011.55" angle="-90.00" type="DEFAULT_VEHTYPE" speed="5.93" pos="17.64" lane="3/1to2/1_0" slope="0.00"/>
        <vehicle id="7" x="2965.97" y="2011.55" angle="-90.00" type="DEFAULT_VEHTYPE" speed="7.00" pos="19.38" lane="3/2to2/2_0" slope="0.00"/>
        <vehicle id="8" x="1011.55" y="31.96" angle="180.00" type="DEFAULT_VEHTYPE" speed="5.79" pos="17.31" lane="1/0to1/1_0" slope="0.00"/>
        <vehicle id="9" x="988.45" y="2969.04" angle="0.00" type="DEFAULT_VEHTYPE" speed="5.66" pos="16.31" lane="1/3to1/2_0" slope="0.00"/>
    </timestep>
    <timestep time="4.00">
        <vehicle id="0" x="37.73" y="1988.45" angle="90.00" type="DEFAULT_VEHTYPE" speed="7.41" pos="23.08" lane="0/2to1/2_0" slope="0.00"/>
        <vehicle id="1" x="40.68" y="1991.75" angle="90.00" type="DEFAULT_VEHTYPE" speed="7.99" pos="26.03" lane="0/2to1/2_1" slope="0.00"/>
        <vehicle id="10" x="22.07" y="1995.05" angle="90.00" type="DEFAULT_VEHTYPE" speed="2.32" pos="7.42" lane="0/2to1/2_2" slope="0.00"/>
        <vehicle id="11" x="21.81" y="995.05" angle="90.00" type="DEFAULT_VEHTYPE" speed="2.06" pos="7.16" lane="0/1to1/1_2" slope="0.00"/>
        <vehicle id="12" x="21.84" y="1988.45" angle="90.00" type="DEFAULT_VEHTYPE" speed="2.09" pos="7.19" lane="0/2to1/2_0" slope="0.00"/>
        <vehicle id="13" x="42.37" y="998.35" angle="90.00" type="DEFAULT_VEHTYPE" speed="8.83" pos="27.72" lane="0/1to1/1_3" slope="0.00"/>
        <vehicle id="14" x="3001.65" y="1038.94" angle="180.00" type="DEFAULT_VEHTYPE" speed="7.44" pos="24.29" lane="3/1to3/2_3" slope="0.00"/>
        <vehicle id="15" x="2988.45" y="1977.89" angle="0.00" type="DEFAULT_VEHTYPE" speed="2.36" pos="7.46" lane="3/2to3/1_0" slope="0.00"/>
        <vehicle id="16" x="2961.65" y="1004.95" angle="-90.00" type="DEFAULT_VEHTYPE" speed="7.96" pos="23.70" lane="3/1to2/1_2" slope="0.00"/>
        <vehicle id="17" x="2962.50" y="2004.95" angle="-90.00" type="DEFAULT_VEHTYPE" speed="7.52" pos="22.85" lane="3/2to2/2_2" slope="0.00"/>
        <vehicle id="18" x="1008.25" y="38.44" angle="180.00" type="DEFAULT_VEHTYPE" speed="7.80" pos="23.79" lane="1/0to1/1_1" slope="0.00"/>
        <vehicle id="19" x="991.75" y="2959.55" angle="0.00" type="DEFAULT_VEHTYPE" speed="8.76" pos="25.80" lane="1/3to1/2_1" slope="0.00"/>
        <vehicle id="2" x="42.58" y="1995.05" angle="90.00" type="DEFAULT_VEHTYPE" speed="8.73" pos="27.93" lane="0/2to1/2_2" slope="0.00"/>
        <vehicle id="22" x="21.80" y="1991.75" angle="90.00" type="DEFAULT_VEHTYPE" speed="2.05" pos="7.15" lane="0/2to1/2_1" slope="0.00"/>
        <vehicle id="23" x="21.28" y="998.35" angle="90.00" type="DEFAULT_VEHTYPE" speed="1.53" pos="6.63" lane="0/1to1/1_3" slope="0.00"/>
        <vehicle id="24" x="3001.65" y="1021.64" angle="180.00" type="DEFAULT_VEHTYPE" speed="1.89" pos="6.99" lane="3/1to3/2_3" slope="0.00"/>
        <vehicle id="26" x="2977.74" y="1004.95" angle="-90.00" type="DEFAULT_VEHTYPE" speed="2.51" pos="7.61" lane="3/1to2/1_2" slope="0.00"/>
        <vehicle id="27" x="2977.85" y="2004.95" angle="-90.00" type="DEFAULT_VEHTYPE" speed="2.40" pos="7.50" lane="3/2to2/2_2" slope="0.00"/>
        <vehicle id="28" x="1004.95" y="39.46" angle="180.00" type="DEFAULT_VEHTYPE" speed="8.30" pos="24.81" lane="1/0to1/1_2" slope="0.00"/>
        <vehicle id="29" x="995.05" y="2959.63" angle="0.00" type="DEFAULT_VEHTYPE" speed="8.07" pos="25.72" lane="1/3to1/2_2" slope="0.00"/>
        <vehicle id="3" x="38.75" y="995.05" angle="90.00" type="DEFAULT_VEHTYPE" speed="7.63" pos="24.10" lane="0/1to1/1_2" slope="0.00"/>
        <vehicle id="38" x="1001.65" y="43.50" angle="180.00" type="DEFAULT_VEHTYPE" speed="9.18" pos="28.85" lane="1/0to1/1_3" slope="0.00"/>
        <vehicle id="39" x="998.35" y="2962.61" angle="0.00" type="DEFAULT_VEHTYPE" speed="7.56" pos="22.74" lane="1/3to1/2_3" slope="0.00"/>
        <vehicle id="4" x="36.20" y="1998.35" angle="90.00" type="DEFAULT_VEHTYPE" speed="6.80" pos="21.55" lane="0/2to1/2_3" slope="0.00"/>
        <vehicle id="48" x="1011.55" y="21.41" angle="180.00" type="DEFAULT_VEHTYPE" speed="1.66" pos="6.76" lane="1/0to1/1_0" slope="0.00"/>
        <vehicle id="49" x="988.45" y="2978.39" angle="0.00" type="DEFAULT_VEHTYPE" speed="1.86" pos="6.96" lane="1/3to1/2_0" slope="0.00"/>
        <vehicle id="5" x="2988.45" y="1960.97" angle="0.00" type="DEFAULT_VEHTYPE" speed="7.81" pos="24.38" lane="3/2to3/1_0" slope="0.00"/>
        <vehicle id="6" x="2960.47" y="1011.55" angle="-90.00" type="DEFAULT_VEHTYPE" speed="7.24" pos="24.88" lane="3/1to2/1_0" slope="0.00"/>
        <vehicle id="7" x="2956.73" y="2011.55" angle="-90.00" type="DEFAULT_VEHTYPE" speed="9.24" pos="28.62" lane="3/2to2/2_0" slope="0.00"/>
        <vehicle id="8" x="1011.55" y="39.89" angle="180.00" type="DEFAULT_VEHTYPE" speed="7.93" pos="25.24" lane="1/0to1/1_0" slope="0.00"/>
        <vehicle id="9" x="988.45" y="2961.05" angle="0.00" type="DEFAULT_VEHTYPE" speed="7.99" pos="24.30" lane="1/3to1/2_0" slope="0.00"/>
    </timestep>
    <timestep time="5.00">
        <vehicle id="0" x="47.56" y="1988.45" angle="90.00" type="DEFAULT_VEHTYPE" speed="9.83" pos="32.91" lane="0/2to1/2_0" slope="0.00"/>
        <vehicle id="1" x="51.11" y="1991.75" angle="90.00" type="DEFAULT_VEHTYPE" speed="10.43" pos="36.46" lane="0/2to1/2_1" slope="0.00"/>
        <vehicle id="10" x="25.98" y="1995.05" angle="90.00" type="DEFAULT_VEHTYPE" speed="3.91" pos="11.33" lane="0/2to1/2_2" slope="0.00"/>
        <vehicle id="11" x="25.84" y="995.05" angle="90.00" type="DEFAULT_VEHTYPE" speed="4.03" pos="11.19" lane="0/1to1/1_2" slope="0.00"/>
        <vehicle id="12" x="25.61" y="1988.45" angle="90.00" type="DEFAULT_VEHTYPE" speed="3.77" pos="10.96" lane="0/2to1/2_0" slope="0.00"/>
        <vehicle id="13" x="53.32" y="998.35" angle="90.00" type="DEFAULT_VEHTYPE" speed="10.95" pos="38.67" lane="0/1to1/1_3" slope="0.00"/>
        <vehicle id="14" x="3001.65" y="1047.78" angle="180.00" type="DEFAULT_VEHTYPE" speed="8.84" pos="33.13" lane="3/1to3/2_3" slope="0.00"/>
        <vehicle id="15" x="2988.45" y="1974.20" angle="0.00" type="DEFAULT_VEHTYPE" speed="3.69" pos="11.15" lane="3/2to3/1_0" slope="0.00"/>
        <vehicle id="16" x="2951.64" y="1004.95" angle="-90.00" type="DEFAULT_VEHTYPE" speed="10.01" pos="33.71" lane="3/1to2/1_2" slope="0.00"/>
        <vehicle id="17" x="2952.52" y="2004.95" angle="-90.00" type="DEFAULT_VEHTYPE" speed="9.98" pos="32.83" lane="3/2to2/2_2" slope="0.00"/>
        <vehicle id="18" x="1008.25" y="47.93" angle="180.00" type="DEFAULT_VEHTYPE" speed="9.49" pos="33.28" lane="1/0to1/1_1" slope="0.00"/>
        <vehicle id="19" x="991.75" y="2948.94" angle="0.00" type="DEFAULT_VEHTYPE" speed="10.61" pos="36.41" lane="1/3to1/2_1" slope="0.00"/>
        <vehicle id="2" x="53.55" y="1995.05" angle="90.00" type="DEFAULT_VEHTYPE" speed="10.97" pos="38.90" lane="0/2to1/2_2" slope="0.00"/>
        <vehicle id="22" x="25.52" y="1991.75" angle="90.00" type="DEFAULT_VEHTYPE" speed="3.72" pos="10.87" lane="0/2to1/2_1" slope="0.00"/>
        <vehicle id="23" x="24.26" y="998.35" angle="90.00" type="DEFAULT_VEHTYPE" speed="2.98" pos="9.61" lane="0/1to1/1_3" slope="0.00"/>
        <vehicle id="24" x="3001.65" y="1025.32" angle="180.00" type="DEFAULT_VEHTYPE" speed="3.68" pos="10.67" lane="3/1to3/2_3" slope="0.00"/>
        <vehicle id="26" x="2973.26" y="1004.95" angle="-90.00" type="DEFAULT_VEHTYPE" speed="4.47" pos="12.09" lane="3/1to2/1_2" slope="0.00"/>
        <vehicle id="27" x="2973.24" y="2004.95" angle="-90.00" type="DEFAULT_VEHTYPE" speed="4.61" pos="12.11" lane="3/2to2/2_2" slope="0.00"/>
        <vehicle id="28" x="1004.95" y="49.91" angle="180.00" type="DEFAULT_VEHTYPE" speed="10.45" pos="35.26" lane="1/0to1/1_2" slope="0.00"/>
        <vehicle id="29" x="995.05" y="2950.10" angle="0.00" type="DEFAULT_VEHTYPE" speed="9.53" pos="35.25" lane="1/3to1/2_2" slope="0.00"/>
        <vehicle id="3" x="48.93" y="995.05" angle="90.00" type="DEFAULT_VEHTYPE" speed="10.18" pos="34.28" lane="0/1to1/1_2" slope="0.00"/>
        <vehicle id="38" x="1001.65" y="54.75" angle="180.00" type="DEFAULT_VEHTYPE" speed="11.25" pos="40.10" lane="1/0to1/1_3" slope="0.00"/>
        <vehicle id="39" x="998.35" y="2953.05" angle="0.00" type="DEFAULT_VEHTYPE" speed="9.57" pos="32.30" lane="1/3to1/2_3" slope="0.00"/>
        <vehicle id="4" x="44.74" y="1998.35" angle="90.00" type="DEFAULT_VEHTYPE" speed="8.53" pos="30.09" lane="0/2to1/2_3" slope="0.00"/>
        <vehicle id="48" x="1011.55" y="25.54" angle="180.00" type="DEFAULT_VEHTYPE" speed="4.13" pos="10.89" lane="1/0to1/1_0" slope="0.00"/>
        <vehicle id="49" x="988.45" y="2975.19" angle="0.00" type="DEFAULT_VEHTYPE" speed="3.20" pos="10.16" lane="1/3to1/2_0" slope="0.00"/>
        <vehicle id="5" x="2988.45" y="1950.59" angle="0.00" type="DEFAULT_VEHTYPE" speed="10.38" pos="34.76" lane="3/2to3/1_0" slope="0.00"/>
        <vehicle id="6" x="2951.55" y="1011.55" angle="-90.00" type="DEFAULT_VEHTYPE" speed="8.91" pos="33.80" lane="3/1to2/1_0" slope="0.00"/>
        <vehicle id="7" x="2946.04" y="2011.55" angle="-90.00" type="DEFAULT_VEHTYPE" speed="10.70" pos="39.31" lane="3/2to2/2_0" slope="0.00"/>
        <vehicle id="8" x="1011.55" y="49.82" angle="180.00" type="DEFAULT_VEHTYPE" speed="9.93" pos="35.17" lane="1/0to1/1_0" slope="0.00"/>
        <vehicle id="9" x="988.45" y="2950.85" angle="0.00" type="DEFAULT_VEHTYPE" speed="10.20" pos="34.50" lane="1/3to1/2_0" slope="0.00"/>
    </timestep>
    <timestep time="6.00">
        <vehicle id="0" x="59.77" y="1988.45" angle="90.00" type="DEFAULT_VEHTYPE" speed="12.21" pos="45.12" lane="0/2to1/2_0" slope="0.00"/>
        <vehicle id="1" x="63.52" y="1991.75" angle="90.00" type="DEFAULT_VEHTYPE" speed="12.40" pos="48.87" lane="0/2to1/2_1" slope="0.00"/>
        <vehicle id="10" x="32.47" y="1995.05" angle="90.00" type="DEFAULT_VEHTYPE" speed="6.49" pos="17.82" lane="0/2to1/2_2" slope="0.00"/>
        <vehicle id="11" x="31.86" y="995.05" angle="90.00" type="DEFAULT_VEHTYPE" speed="6.02" pos="17.21" lane="0/1to1/1_2" slope="0.00"/>
        <vehicle id="12" x="30.80" y="1988.45" angle="90.00" type="DEFAULT_VEHTYPE" speed="5.19" pos="16.15" lane="0/2to1/2_0" slope="0.00"/>
        <vehicle id="13" x="65.84" y="998.35" angle="90.00" type="DEFAULT_VEHTYPE" speed="12.51" pos="51.19" lane="0/1to1/1_3" slope="0.00"/>
        <vehicle id="14" x="3001.65" y="1058.77" angle="180.00" type="DEFAULT_VEHTYPE" speed="10.99" pos="44.12" lane="3/1to3/2_3" slope="0.00"/>
        <vehicle id="15" x="2988.45" y="1968.41" angle="0.00" type="DEFAULT_VEHTYPE" speed="5.78" pos="16.94" lane="3/2to3/1_0" slope="0.00"/>
        <vehicle id="16" x="2939.59" y="1004.95" angle="-90.00" type="DEFAULT_VEHTYPE" speed="12.05" pos="45.76" lane="3/1to2/1_2" slope="0.00"/>
        <vehicle id="17" x="2941.04" y="2004.95" angle="-90.00" type="DEFAULT_VEHTYPE" speed="11.48" pos="44.31" lane="3/2to2/2_2" slope="0.00"/>
        <vehicle id="18" x="1008.25" y="59.18" angle="180.00" type="DEFAULT_VEHTYPE" speed="11.25" pos="44.53" lane="1/0to1/1_1" slope="0.00"/>
        <vehicle id="19" x="991.75" y="2936.62" angle="0.00" type="DEFAULT_VEHTYPE" speed="12.33" pos="48.73" lane="1/3to1/2_1" slope="0.00"/>
        <vehicle id="2" x="65.84" y="1995.05" angle="90.00" type="DEFAULT_VEHTYPE" speed="12.29" pos="51.19" lane="0/2to1/2_2" slope="0.00"/>
        <vehicle id="20" x="19.75" y="1995.05" angle="90.00" type="DEFAULT_VEHTYPE" speed="0.00" pos="5.10" lane="0/2to1/2_2" slope="0.00"/>
        <vehicle id="21" x="19.75" y="995.05" angle="90.00" type="DEFAULT_VEHTYPE" speed="0.00" pos="5.10" lane="0/1to1/1_2" slope="0.00"/>
        <vehicle id="22" x="30.69" y="1991.75" angle="90.00" type="DEFAULT_VEHTYPE" speed="5.17" pos="16.04" lane="0/2to1/2_1" slope="0.00"/>
        <vehicle id="23" x="29.39" y="998.35" angle="90.00" type="DEFAULT_VEHTYPE" speed="5.13" pos="14.74" lane="0/1to1/1_3" slope="0.00"/>
        <vehicle id="24" x="3001.65" y="1030.42" angle="180.00" type="DEFAULT_VEHTYPE" speed="5.10" pos="15.77" lane="3/1to3/2_3" slope="0.00"/>
        <vehicle id="25" x="2988.45" y="1980.25" angle="0.00" type="DEFAULT_VEHTYPE" speed="0.00" pos="5.10" lane="3/2to3/1_0" slope="0.00"/>
        <vehicle id="26" x="2967.05" y="1004.95" angle="-90.00" type="DEFAULT_VEHTYPE" speed="6.21" pos="18.30" lane="3/1to2/1_2" slope="0.00"/>
        <vehicle id="27" x="2967.30" y="2004.95" angle="-90.00" type="DEFAULT_VEHTYPE" speed="5.94" pos="18.05" lane="3/2to2/2_2" slope="0.00"/>
        <vehicle id="28" x="1004.95" y="61.85" angle="180.00" type="DEFAULT_VEHTYPE" speed="11.94" pos="47.20" lane="1/0to1/1_2" slope="0.00"/>
        <vehicle id="29" x="995.05" y="2938.47" angle="0.00" type="DEFAULT_VEHTYPE" speed="11.64" pos="46.88" lane="1/3to1/2_2" slope="0.00"/>
        <vehicle id="3" x="61.26" y="995.05" angle="90.00" type="DEFAULT_VEHTYPE" speed="12.34" pos="46.61" lane="0/1to1/1_2" slope="0.00"/>
        <vehicle id="32" x="19.75" y="1988.45" angle="90.00" type="DEFAULT_VEHTYPE" speed="0.00" pos="5.10" lane="0/2to1/2_0" slope="0.00"/>
        <vehicle id="33" x="19.75" y="998.35" angle="90.00" type="DEFAULT_VEHTYPE" speed="0.00" pos="5.10" lane="0/1to1/1_3" slope="0.00"/>
        <vehicle id="34" x="3001.65" y="1019.75" angle="180.00" type="DEFAULT_VEHTYPE" speed="0.00" pos="5.10" lane="3/1to3/2_3" slope="0.00"/>
        <vehicle id="36" x="2980.25" y="1004.95" angle="-90.00" type="DEFAULT_VEHTYPE" speed="0.00" pos="5.10" lane="3/1to2/1_2" slope="0.00"/>
        <vehicle id="37" x="2980.25" y="2004.95" angle="-90.00" type="DEFAULT_VEHTYPE" speed="0.00" pos="5.10" lane="3/2to2/2_2" slope="0.00"/>
        <vehicle id="38" x="1001.65" y="68.46" angle="180.00" type="DEFAULT_VEHTYPE" speed="13.72" pos="53.81" lane="1/0to1/1_3" slope="0.00"/>
        <vehicle id="39" x="998.35" y="2941.24" angle="0.00" type="DEFAULT_VEHTYPE" speed="11.81" pos="44.11" lane="1/3to1/2_3" slope="0.00"/>
        <vehicle id="4" x="55.16" y="1998.35" angle="90.00" type="DEFAULT_VEHTYPE" speed="10.42" pos="40.51" lane="0/2to1/2_3" slope="0.00"/>
        <vehicle id="42" x="19.75" y="1991.75" angle="90.00" type="DEFAULT_VEHTYPE" speed="0.00" pos="5.10" lane="0/2to1/2_1" slope="0.00"/>
        <vehicle id="48" x="1011.55" y="31.20" angle="180.00" type="DEFAULT_VEHTYPE" speed="5.66" pos="16.55" lane="1/0to1/1_0" slope="0.00"/>
        <vehicle id="49" x="988.45" y="2970.16" angle="0.00" type="DEFAULT_VEHTYPE" speed="5.03" pos="15.19" lane="1/3to1/2_0" slope="0.00"/>
        <vehicle id="5" x="2988.45" y="1938.48" angle="0.00" type="DEFAULT_VEHTYPE" speed="12.10" pos="46.87" lane="3/2to3/1_0" slope="0.00"/>
        <vehicle id="6" x="2940.80" y="1011.55" angle="-90.00" type="DEFAULT_VEHTYPE" speed="10.75" pos="44.55" lane="3/1to2/1_0" slope="0.00"/>
        <vehicle id="7" x="2932.94" y="2011.55" angle="-90.00" type="DEFAULT_VEHTYPE" speed="13.10" pos="52.41" lane="3/2to2/2_0" slope="0.00"/>
        <vehicle id="8" x="1011.55" y="61.11" angle="180.00" type="DEFAULT_VEHTYPE" speed="11.30" pos="46.46" lane="1/0to1/1_0" slope="0.00"/>
        <vehicle id="9" x="988.45" y="2938.80" angle="0.00" type="DEFAULT_VEHTYPE" speed="12.06" pos="46.55" lane="1/3to1/2_0" slope="0.00"/>
    </timestep>
    <timestep time="7.00">
        <vehicle id="0" x="74.28" y="1988.45" angle="90.00" type="DEFAULT_VEHTYPE" speed="14.51" pos="59.63" lane="0/2to1/2_0" slope="0.00"/>
        <vehicle id="1" x="78.37" y="1991.75" angle="90.00" type="DEFAULT_VEHTYPE" speed="14.85" pos="63.72" lane="0/2to1/2_1" slope="0.00"/>
        <vehicle id="10" x="41.36" y="1995.05" angle="90.00" type="DEFAULT_VEHTYPE" speed="8.88" pos="26.71" lane="0/2to1/2_2" slope="0.00"/>
        <vehicle id="11" x="39.38" y="995.05" angle="90.00" type="DEFAULT_VEHTYPE" speed="7.52" pos="24.73" lane="0/1to1/1_2" slope="0.00"/>
        <vehicle id="12" x="38.30" y="1988.45" angle="90.00" type="DEFAULT_VEHTYPE" speed="7.50" pos="23.65" lane="0/2to1/2_0" slope="0.00"/>
        <vehicle id="13" x="80.42" y="998.35" angle="90.00" type="DEFAULT_VEHTYPE" speed="14.58" pos="65.77" lane="0/1to1/1_3" slope="0.00"/>
        <vehicle id="14" x="3001.65" y="1071.29" angle="180.00" type="DEFAULT_VEHTYPE" speed="12.53" pos="56.64" lane="3/1to3/2_3" slope="0.00"/>
        <vehicle id="15" x="2988.45" y="1960.89" angle="0.00" type="DEFAULT_VEHTYPE" speed="7.53" pos="24.46" lane="3/2to3/1_0" slope="0.00"/>
        <vehicle id="16" x="2925.58" y="1004.95" angle="-90.00" type="DEFAULT_VEHTYPE" speed="14.01" pos="59.77" lane="3/1to2/1_2" slope="0.00"/>
        <vehicle id="17" x="2928.14" y="2004.95" angle="-90.00" type="DEFAULT_VEHTYPE" speed="12.90" pos="57.21" lane="3/2to2/2_2" slope="0.00"/>