<?xml version="1.0" encoding="UTF-8"?>

<!-- generated on 02/22/17 13:54:03 by SUMO Version 0.24.0
<?xml version="1.0" encoding="UTF-8"?>

<configuration xmlns:xsi="http://www.w3.org/2001/XMLSchema-instance" xsi:noNamespaceSchemaLocation="http://sumo.dlr.de/xsd/sumoConfiguration.xsd">

    <input>
        <net-file value="input_net.net.xml"/>
        <route-files value="routes.rou.xml"/>
    </input>

    <output>
        <fcd-output value="fcdoutput.xml"/>
    </output>

</configuration>
-->

<fcd-export xmlns:xsi="http://www.w3.org/2001/XMLSchema-instance" xsi:noNamespaceSchemaLocation="http://sumo.dlr.de/xsd/fcd_file.xsd">
    <timestep time="0.00">
        <vehicle id="0" x="3927.34" y="20305.40" angle="90.43" type="DEFAULT_VEHTYPE" speed="0.00" pos="5.10" lane="453294515_0" slope="0.00"/>
        <vehicle id="1" x="4307.38" y="21246.21" angle="166.38" type="DEFAULT_VEHTYPE" speed="0.00" pos="5.10" lane="-322629017#1_0" slope="0.00"/>
    </timestep>
    <timestep time="1.00">
        <vehicle id="0" x="3928.78" y="20305.41" angle="90.43" type="DEFAULT_VEHTYPE" speed="1.44" pos="6.54" lane="453294515_0" slope="0.00"/>
        <vehicle id="1" x="4307.71" y="21247.85" angle="167.80" type="DEFAULT_VEHTYPE" speed="1.67" pos="6.77" lane="-322629017#1_0" slope="0.00"/>
        <vehicle id="10" x="4623.60" y="20740.55" angle="105.50" type="DEFAULT_VEHTYPE" speed="0.00" pos="5.10" lane="119029073_0" slope="0.00"/>
        <vehicle id="11" x="4665.91" y="21168.64" angle="87.59" type="DEFAULT_VEHTYPE" speed="0.00" pos="5.10" lane="445014537#1_0" slope="0.00"/>
        <vehicle id="12" x="5839.27" y="20155.22" angle="1.75" type="DEFAULT_VEHTYPE" speed="0.00" pos="5.10" lane="442232082#2_0" slope="0.00"/>
        <vehicle id="13" x="4548.87" y="20762.29" angle="-19.97" type="DEFAULT_VEHTYPE" speed="0.00" pos="5.10" lane="457886988_0" slope="0.00"/>
        <vehicle id="14" x="4298.46" y="20597.85" angle="0.13" type="DEFAULT_VEHTYPE" speed="0.00" pos="5.10" lane="462138645#2_0" slope="0.00"/>
        <vehicle id="15" x="4303.76" y="20605.87" angle="86.94" type="DEFAULT_VEHTYPE" speed="0.00" pos="2.13" lane="199898038#2_0" slope="0.00"/>
        <vehicle id="16" x="4308.69" y="20796.66" angle="179.18" type="DEFAULT_VEHTYPE" speed="0.00" pos="5.10" lane="453717289#0_0" slope="0.00"/>
        <vehicle id="17" x="4576.73" y="21315.84" angle="-0.60" type="DEFAULT_VEHTYPE" speed="0.00" pos="5.10" lane="429011445#1_0" slope="0.00"/>
        <vehicle id="18" x="4109.46" y="19712.74" angle="-32.49" type="DEFAULT_VEHTYPE" speed="0.00" pos="5.10" lane="444418082_0" slope="0.00"/>
        <vehicle id="19" x="5260.94" y="21143.58" angle="-1.72" type="DEFAULT_VEHTYPE" speed="0.00" pos="5.10" lane="441997996_0" slope="0.00"/>
        <vehicle id="2" x="4287.71" y="21149.53" angle="-91.20" type="DEFAULT_VEHTYPE" speed="0.00" pos="5.10" lane="-232602663#1_0" slope="0.00"/>
        <vehicle id="20" x="4762.78" y="20587.34" angle="-6.23" type="DEFAULT_VEHTYPE" speed="0.00" pos="5.10" lane="27318112#5_0" slope="0.00"/>
        <vehicle id="21" x="4570.72" y="19727.96" angle="0.98" type="DEFAULT_VEHTYPE" speed="0.00" pos="5.10" lane="457885320#6_0" slope="0.00"/>
        <vehicle id="22" x="5218.16" y="20237.27" angle="-89.16" type="DEFAULT_VEHTYPE" speed="0.00" pos="5.10" lane="440897034#1_0" slope="0.00"/>
        <vehicle id="23" x="5900.10" y="19621.67" angle="-174.58" type="DEFAULT_VEHTYPE" speed="0.00" pos="5.10" lane="194344114#1_0" slope="0.00"/>
        <vehicle id="24" x="4735.07" y="19885.86" angle="85.88" type="DEFAULT_VEHTYPE" speed="0.00" pos="5.10" lane="411044293_0" slope="0.00"/>
        <vehicle id="26" x="4309.56" y="19895.33" angle="90.37" type="DEFAULT_VEHTYPE" speed="0.00" pos="5.10" lane="-29141057#0_0" slope="0.00"/>
        <vehicle id="27" x="3962.26" y="20238.19" angle="178.58" type="DEFAULT_VEHTYPE" speed="0.00" pos="5.10" lane="232602810_0" slope="0.00"/>
        <vehicle id="28" x="4313.13" y="19711.83" angle="-132.84" type="DEFAULT_VEHTYPE" speed="0.00" pos="5.10" lane="248282336#0_0" slope="0.00"/>
        <vehicle id="3" x="5281.60" y="20497.18" angle="179.06" type="DEFAULT_VEHTYPE" speed="0.00" pos="5.10" lane="440897382#2_0" slope="0.00"/>
        <vehicle id="30" x="4610.18" y="19656.80" angle="92.00" type="DEFAULT_VEHTYPE" speed="0.00" pos="0.20" lane="444422640#0_0" slope="0.00"/>
        <vehicle id="31" x="3937.19" y="21344.85" angle="58.94" type="DEFAULT_VEHTYPE" speed="0.00" pos="5.10" lane="440044936#1_0" slope="0.00"/>
        <vehicle id="32" x="5236.11" y="20206.02" angle="85.57" type="DEFAULT_VEHTYPE" speed="0.00" pos="5.10" lane="440881632#1_0" slope="0.00"/>
        <vehicle id="33" x="4532.20" y="20751.62" angle="122.56" type="DEFAULT_VEHTYPE" speed="0.00" pos="5.10" lane="453717285_0" slope="0.00"/>
        <vehicle id="34" x="3947.55" y="21056.25" angle="3.32" type="DEFAULT_VEHTYPE" speed="0.00" pos="5.10" lane="444014976_0" slope="0.00"/>
        <vehicle id="36" x="5289.67" y="21159.00" angle="-43.81" type="DEFAULT_VEHTYPE" speed="0.00" pos="5.10" lane="441997998_0" slope="0.00"/>
        <vehicle id="37" x="4791.39" y="20730.51" angle="85.92" type="DEFAULT_VEHTYPE" speed="0.00" pos="5.10" lane="228124193_0" slope="0.00"/>
        <vehicle id="38" x="4311.46" y="21324.26" angle="-4.91" type="DEFAULT_VEHTYPE" speed="0.00" pos="5.10" lane="322629017#1_0" slope="0.00"/>
        <vehicle id="39" x="5878.78" y="19915.51" angle="-178.24" type="DEFAULT_VEHTYPE" speed="0.00" pos="5.10" lane="440897023#1_0" slope="0.00"/>
        <vehicle id="4" x="4592.79" y="21802.26" angle="-2.94" type="DEFAULT_VEHTYPE" speed="0.00" pos="5.10" lane="429011445#0_0" slope="0.00"/>
        <vehicle id="5" x="4756.74" y="20589.50" angle="-36.85" type="DEFAULT_VEHTYPE" speed="0.00" pos="5.10" lane="444418077_0" slope="0.00"/>
        <vehicle id="6" x="5277.86" y="21205.93" angle="-154.44" type="DEFAULT_VEHTYPE" speed="0.00" pos="5.10" lane="439965069#1_0" slope="0.00"/>
        <vehicle id="7" x="5251.11" y="20731.21" angle="-39.82" type="DEFAULT_VEHTYPE" speed="0.00" pos="5.10" lane="440881562#0_0" slope="0.00"/>
        <vehicle id="8" x="4316.43" y="20754.59" angle="84.15" type="DEFAULT_VEHTYPE" speed="0.00" pos="5.10" lane="457176635_0" slope="0.00"/>
        <vehicle id="9" x="3785.95" y="21472.18" angle="65.22" type="DEFAULT_VEHTYPE" speed="0.00" pos="5.10" lane="233337676_0" slope="0.00"/>
    </timestep>
    <timestep time="2.00">
        <vehicle id="0" x="3932.38" y="20305.26" angle="88.43" type="DEFAULT_VEHTYPE" speed="3.62" pos="10.16" lane="453294515_0" slope="0.00"/>
        <vehicle id="1" x="4308.37" y="21251.18" angle="168.77" type="DEFAULT_VEHTYPE" speed="3.39" pos="10.16" lane="-322629017#1_0" slope="0.00"/>
        <vehicle id="10" x="4625.02" y="20740.86" angle="102.13" type="DEFAULT_VEHTYPE" speed="1.46" pos="6.56" lane="119029073_0" slope="0.00"/>
        <vehicle id="11" x="4668.45" y="21168.53" angle="87.59" type="DEFAULT_VEHTYPE" speed="2.54" pos="7.64" lane="445014537#1_0" slope="0.00"/>
        <vehicle id="12" x="5839.33" y="20153.02" angle="1.75" type="DEFAULT_VEHTYPE" speed="2.21" pos="7.31" lane="442232082#2_0" slope="0.00"/>
        <vehicle id="13" x="4548.04" y="20759.68" angle="-17.73" type="DEFAULT_VEHTYPE" speed="2.54" pos="7.64" lane="457886988_0" slope="0.00"/>
        <vehicle id="14" x="4298.47" y="20595.42" angle="0.13" type="DEFAULT_VEHTYPE" speed="2.43" pos="7.53" lane="462138645#2_0" slope="0.00"/>
        <vehicle id="15" x="4305.45" y="20605.33" angle="81.74" type="DEFAULT_VEHTYPE" speed="1.78" pos="1.78" lane=":320574338_4_0" slope="0.00"/>
        <vehicle id="16" x="4308.72" y="20798.83" angle="179.18" type="DEFAULT_VEHTYPE" speed="2.17" pos="7.27" lane="453717289#0_0" slope="0.00"/>
        <vehicle id="17" x="4576.71" y="21314.14" angle="-0.60" type="DEFAULT_VEHTYPE" speed="1.73" pos="6.83" lane="429011445#1_0" slope="0.00"/>
        <vehicle id="18" x="4108.72" y="19711.61" angle="-32.74" type="DEFAULT_VEHTYPE" speed="1.36" pos="6.46" lane="444418082_0" slope="0.00"/>
        <vehicle id="19" x="5260.89" y="21141.95" angle="-1.72" type="DEFAULT_VEHTYPE" speed="1.63" pos="6.73" lane="441997996_0" slope="0.00"/>
        <vehicle id="2" x="4285.17" y="21149.58" angle="-91.20" type="DEFAULT_VEHTYPE" speed="2.54" pos="7.64" lane="-232602663#1_0" slope="0.00"/>
        <vehicle id="20" x="4762.56" y="20585.34" angle="-6.23" type="DEFAULT_VEHTYPE" speed="2.01" pos="7.11" lane="27318112#5_0" slope="0.00"/>
        <vehicle id="21" x="4570.75" y="19725.97" angle="0.98" type="DEFAULT_VEHTYPE" speed="1.96" pos="7.06" lane="457885320#6_0" slope="0.00"/>
        <vehicle id="22" x="5216.28" y="20237.24" angle="-89.16" type="DEFAULT_VEHTYPE" speed="1.89" pos="6.99" lane="440897034#1_0" slope="0.00"/>
        <vehicle id="23" x="5899.90" y="19623.86" angle="-174.82" type="DEFAULT_VEHTYPE" speed="2.20" pos="7.30" lane="194344114#1_0" slope="0.00"/>
        <vehicle id="24" x="4736.51" y="19885.76" angle="85.88" type="DEFAULT_VEHTYPE" speed="1.45" pos="6.55" lane="411044293_0" slope="0.00"/>
        <vehicle id="26" x="4311.49" y="19895.35" angle="90.37" type="DEFAULT_VEHTYPE" speed="1.93" pos="7.03" lane="-29141057#0_0" slope="0.00"/>
        <vehicle id="27" x="3962.31" y="20240.44" angle="178.58" type="DEFAULT_VEHTYPE" speed="2.26" pos="7.36" lane="232602810_0" slope="0.00"/>
        <vehicle id="28" x="4312.14" y="19712.79" angle="-133.61" type="DEFAULT_VEHTYPE" speed="1.38" pos="6.48" lane="248282336#0_0" slope="0.00"/>
        <vehicle id="3" x="5281.64" y="20499.45" angle="179.06" type="DEFAULT_VEHTYPE" speed="2.28" pos="7.38" lane="440897382#2_0" slope="0.00"/>
        <vehicle id="30" x="4612.74" y="19656.65" angle="88.48" type="DEFAULT_VEHTYPE" speed="2.56" pos="2.56" lane=":2550892377_0_0" slope="0.00"/>
        <vehicle id="31" x="3938.81" y="21343.87" angle="58.94" type="DEFAULT_VEHTYPE" speed="1.89" pos="6.99" lane="440044936#1_0" slope="0.00"/>
        <vehicle id="32" x="5238.40" y="20205.87" angle="86.00" type="DEFAULT_VEHTYPE" speed="2.29" pos="7.39" lane="440881632#1_0" slope="0.00"/>
        <vehicle id="33" x="4533.48" y="20752.75" angle="125.76" type="DEFAULT_VEHTYPE" speed="1.71" pos="6.81" lane="453717285_0" slope="0.00"/>
        <vehicle id="34" x="3947.64" y="21054.64" angle="3.32" type="DEFAULT_VEHTYPE" speed="1.61" pos="6.71" lane="444014976_0" slope="0.00"/>
        <vehicle id="36" x="5288.56" y="21156.70" angle="-34.55" type="DEFAULT_VEHTYPE" speed="2.56" pos="7.66" lane="441997998_0" slope="0.00"/>
        <vehicle id="37" x="4793.90" y="20730.33" angle="85.92" type="DEFAULT_VEHTYPE" speed="2.52" pos="7.62" lane="228124193_0" slope="0.00"/>
        <vehicle id="38" x="4311.33" y="21322.74" angle="-4.91" type="DEFAULT_VEHTYPE" speed="1.53" pos="6.63" lane="322629017#1_0" slope="0.00"/>
        <vehicle id="39" x="5878.73" y="19917.14" angle="-178.24" type="DEFAULT_VEHTYPE" speed="1.63" pos="6.73" lane="440897023#1_0" slope="0.00"/>
        <vehicle id="4" x="4592.69" y="21800.26" angle="-2.94" type="DEFAULT_VEHTYPE" speed="1.99" pos="7.09" lane="429011445#0_0" slope="0.00"/>
        <vehicle id="40" x="4955.83" y="21310.99" angle="82.70" type="DEFAULT_VEHTYPE" speed="0.00" pos="5.10" lane="-440881469#0_0" slope="0.00"/>
        <vehicle id="41" x="5805.22" y="20418.51" angle="71.95" type="DEFAULT_VEHTYPE" speed="0.00" pos="5.10" lane="442085400_0" slope="0.00"/>
        <vehicle id="42" x="5779.17" y="20646.67" angle="83.94" type="DEFAULT_VEHTYPE" speed="0.00" pos="5.10" lane="442084725#2_0" slope="0.00"/>
        <vehicle id="43" x="5873.47" y="20237.36" angle="-177.87" type="DEFAULT_VEHTYPE" speed="0.00" pos="5.10" lane="440897028#1_0" slope="0.00"/>
        <vehicle id="45" x="5249.39" y="21298.36" angle="-92.53" type="DEFAULT_VEHTYPE" speed="0.00" pos="5.10" lane="440881469#0_0" slope="0.00"/>
        <vehicle id="46" x="5840.29" y="20803.21" angle="172.54" type="DEFAULT_VEHTYPE" speed="0.00" pos="5.10" lane="188246611#0_0" slope="0.00"/>
        <vehicle id="47" x="3950.03" y="21285.65" angle="-0.64" type="DEFAULT_VEHTYPE" speed="0.00" pos="5.10" lane="233337680_0" slope="0.00"/>
        <vehicle id="49" x="5546.45" y="20443.91" angle="-93.90" type="DEFAULT_VEHTYPE" speed="0.00" pos="5.10" lane="-440771230#0_0" slope="0.00"/>
        <vehicle id="5" x="4755.16" y="20587.71" angle="-41.34" type="DEFAULT_VEHTYPE" speed="2.39" pos="7.49" lane="444418077_0" slope="0.00"/>
        <vehicle id="51" x="4582.55" y="20583.46" angle="85.98" type="DEFAULT_VEHTYPE" speed="0.00" pos="5.10" lane="-29141189#1_0" slope="0.00"/>
        <vehicle id="52" x="4036.40" y="19681.00" angle="100.78" type="DEFAULT_VEHTYPE" speed="0.00" pos="5.10" lane="444428465#0_0" slope="0.00"/>
        <vehicle id="53" x="5850.09" y="21138.17" angle="-92.87" type="DEFAULT_VEHTYPE" speed="0.00" pos="5.10" lane="444400943_0" slope="0.00"/>
        <vehicle id="54" x="4289.58" y="20460.24" angle="-93.28" type="DEFAULT_VEHTYPE" speed="0.00" pos="5.10" lane="-444418076#0_0" slope="0.00"/>
        <vehicle id="56" x="5327.14" y="20455.54" angle="86.10" type="DEFAULT_VEHTYPE" speed="0.00" pos="5.10" lane="440771230#0_0" slope="0.00"/>
        <vehicle id="57" x="3981.76" y="20254.76" angle="160.97" type="DEFAULT_VEHTYPE" speed="0.00" pos="5.10" lane="444126142_0" slope="0.00"/>
        <vehicle id="58" x="5566.41" y="20439.09" angle="85.30" type="DEFAULT_VEHTYPE" speed="0.00" pos="5.10" lane="440771230#1_0" slope="0.00"/>
        <vehicle id="59" x="3949.80" y="20681.84" angle="-13.05" type="DEFAULT_VEHTYPE" speed="0.00" pos="5.10" lane="443987645#0_0" slope="0.00"/>
        <vehicle id="6" x="5277.07" y="21207.80" angle="-155.50" type="DEFAULT_VEHTYPE" speed="2.17" pos="0.10" lane=":4376714552_0_0" slope="0.00"/>
        <vehicle id="7" x="5249.42" y="20729.17" angle="-39.82" type="DEFAULT_VEHTYPE" speed="2.59" pos="7.69" lane="440881562#0_0" slope="0.00"/>
        <vehicle id="8" x="4318.25" y="20754.40" angle="84.15" type="DEFAULT_VEHTYPE" speed="1.83" pos="6.93" lane="457176635_0" slope="0.00"/>
        <vehicle id="9" x="3787.64" y="21471.40" angle="65.22" type="DEFAULT_VEHTYPE" speed="1.86" pos="6.96" lane="233337676_0" slope="0.00"/>
    </timestep>
    <timestep time="3.00">
        <vehicle id="0" x="3937.82" y="20305.03" angle="87.57" type="DEFAULT_VEHTYPE" speed="5.47" pos="15.63" lane="453294515_0" slope="0.00"/>
        <vehicle id="1" x="4308.98" y="21256.90" angle="174.69" type="DEFAULT_VEHTYPE" speed="5.77" pos="15.92" lane="-322629017#1_0" slope="0.00"/>
        <vehicle id="10" x="4628.34" y="20741.57" angle="102.13" type="DEFAULT_VEHTYPE" speed="3.42" pos="9.98" lane="119029073_0" slope="0.00"/>
        <vehicle id="11" x="4673.37" y="21168.32" angle="87.59" type="DEFAULT_VEHTYPE" speed="4.92" pos="12.57" lane="445014537#1_0" slope="0.00"/>
        <vehicle id="12" x="5839.47" y="20148.44" angle="1.75" type="DEFAULT_VEHTYPE" speed="4.58" pos="11.88" lane="442232082#2_0" slope="0.00"/>
        <vehicle id="13" x="4547.26" y="20755.60" angle="-12.35" type="DEFAULT_VEHTYPE" speed="3.89" pos="11.53" lane="457886988_0" slope="0.00"/>
        <vehicle id="14" x="4298.48" y="20590.66" angle="0.13" type="DEFAULT_VEHTYPE" speed="4.76" pos="12.29" lane="462138645#2_0" slope="0.00"/>
        <vehicle id="15" x="4309.39" y="20604.06" angle="72.16" type="DEFAULT_VEHTYPE" speed="4.14" pos="5.92" lane=":320574338_4_0" slope="0.00"/>
        <vehicle id="16" x="4308.78" y="20802.86" angle="179.18" type="DEFAULT_VEHTYPE" speed="4.03" pos="11.30" lane="453717289#0_0" slope="0.00"/>
        <vehicle id="17" x="4576.67" y="21310.79" angle="-0.60" type="DEFAULT_VEHTYPE" speed="3.39" pos="10.22" lane="429011445#1_0" slope="0.00"/>
        <vehicle id="18" x="4106.21" y="19709.15" angle="-41.96" type="DEFAULT_VEHTYPE" speed="3.52" pos="9.97" lane="444418082_0" slope="0.00"/>
        <vehicle id="19" x="5260.78" y="21138.46" angle="-1.72" type="DEFAULT_VEHTYPE" speed="3.49" pos="10.22" lane="441997996_0" slope="0.00"/>
        <vehicle id="2" x="4281.27" y="21149.66" angle="-91.20" type="DEFAULT_VEHTYPE" speed="3.90" pos="11.54" lane="-232602663#1_0" slope="0.00"/>
        <vehicle id="20" x="4762.16" y="20581.65" angle="-6.23" type="DEFAULT_VEHTYPE" speed="3.71" pos="10.83" lane="27318112#5_0" slope="0.00"/>
        <vehicle id="21" x="4574.12" y="19722.08" angle="0.98" type="DEFAULT_VEHTYPE" speed="4.22" pos="11.28" lane="457885320#6_1" slope="0.00"/>
        <vehicle id="22" x="5212.85" y="20237.19" angle="-89.16" type="DEFAULT_VEHTYPE" speed="3.44" pos="10.43" lane="440897034#1_0" slope="0.00"/>
        <vehicle id="23" x="5899.54" y="19627.81" angle="-174.79" type="DEFAULT_VEHTYPE" speed="3.97" pos="11.27" lane="194344114#1_0" slope="0.00"/>
        <vehicle id="24" x="4740.18" y="19885.50" angle="85.88" type="DEFAULT_VEHTYPE" speed="3.68" pos="10.23" lane="411044293_0" slope="0.00"/>
        <vehicle id="26" x="4315.79" y="19895.37" angle="90.37" type="DEFAULT_VEHTYPE" speed="4.29" pos="11.33" lane="-29141057#0_0" slope="0.00"/>
        <vehicle id="27" x="3962.40" y="20244.05" angle="178.58" type="DEFAULT_VEHTYPE" speed="3.61" pos="10.96" lane="232602810_0" slope="0.00"/>
        <vehicle id="28" x="4309.93" y="19715.81" angle="-141.38" type="DEFAULT_VEHTYPE" speed="3.78" pos="10.26" lane="248282336#0_0" slope="0.00"/>
        <vehicle id="3" x="5281.72" y="20504.01" angle="179.06" type="DEFAULT_VEHTYPE" speed="4.56" pos="11.94" lane="440897382#2_0" slope="0.00"/>
        <vehicle id="30" x="4617.79" y="19656.34" angle="86.50" type="DEFAULT_VEHTYPE" speed="5.06" pos="7.62" lane=":2550892377_0_0" slope="0.00"/>
        <vehicle id="31" x="3942.05" y="21341.92" angle="58.94" type="DEFAULT_VEHTYPE" speed="3.78" pos="10.77" lane="440044936#1_0" slope="0.00"/>
        <vehicle id="32" x="5242.08" y="20205.64" angle="86.35" type="DEFAULT_VEHTYPE" speed="3.69" pos="11.08" lane="440881632#1_0" slope="0.00"/>
        <vehicle id="33" x="4535.93" y="20756.02" angle="141.18" type="DEFAULT_VEHTYPE" speed="4.20" pos="11.01" lane="453717285_0" slope="0.00"/>
        <vehicle id="34" x="3947.81" y="21051.73" angle="3.32" type="DEFAULT_VEHTYPE" speed="2.92" pos="9.62" lane="444014976_0" slope="0.00"/>
        <vehicle id="35" x="3927.34" y="20305.40" angle="90.43" type="DEFAULT_VEHTYPE" speed="0.00" pos="5.10" lane="453294515_0" slope="0.00"/>
        <vehicle id="36" x="5287.18" y="21151.85" angle="-15.73" type="DEFAULT_VEHTYPE" speed="5.07" pos="12.73" lane="441997998_0" slope="0.00"/>
        <vehicle id="37" x="4798.61" y="20729.99" angle="85.92" type="DEFAULT_VEHTYPE" speed="4.72" pos="12.34" lane="228124193_0" slope="0.00"/>
        <vehicle id="38" x="4310.98" y="21318.66" angle="-4.91" type="DEFAULT_VEHTYPE" speed="4.09" pos="10.72" lane="322629017#1_0" slope="0.00"/>
        <vehicle id="39" x="5878.61" y="19921.25" angle="-178.24" type="DEFAULT_VEHTYPE" speed="4.12" pos="10.85" lane="440897023#1_0" slope="0.00"/>
        <vehicle id="4" x="4592.49" y="21796.45" angle="-2.94" type="DEFAULT_VEHTYPE" speed="3.82" pos="10.91" lane="429011445#0_0" slope="0.00"/>
        <vehicle id="40" x="4958.03" y="21310.71" angle="82.70" type="DEFAULT_VEHTYPE" speed="2.22" pos="7.32" lane="-440881469#0_0" slope="0.00"/>
        <vehicle id="41" x="5807.09" y="20417.66" angle="67.14" type="DEFAULT_VEHTYPE" speed="2.06" pos="7.16" lane="442085400_0" slope="0.00"/>
        <vehicle id="42" x="5781.00" y="20646.48" angle="83.94" type="DEFAULT_VEHTYPE" speed="1.84" pos="6.94" lane="442084725#2_0" slope="0.00"/>
        <vehicle id="43" x="5873.41" y="20238.89" angle="-177.87" type="DEFAULT_VEHTYPE" speed="1.53" pos="6.63" lane="440897028#1_0" slope="0.00"/>
        <vehicle id="45" x="5247.45" y="21298.45" angle="-92.53" type="DEFAULT_VEHTYPE" speed="1.93" pos="7.03" lane="440881469#0_0" slope="0.00"/>
        <vehicle id="46" x="5840.52" y="20804.91" angle="172.54" type="DEFAULT_VEHTYPE" speed="1.72" pos="6.82" lane="188246611#0_0" slope="0.00"/>
        <vehicle id="47" x="3950.01" y="21283.60" angle="-0.64" type="DEFAULT_VEHTYPE" speed="2.05" pos="7.15" lane="233337680_0" slope="0.00"/>
        <vehicle id="49" x="5544.31" y="20444.05" angle="-93.90" type="DEFAULT_VEHTYPE" speed="2.14" pos="7.24" lane="-440771230#0_0" slope="0.00"/>
        <vehicle id="5" x="4751.64" y="20584.87" angle="-50.24" type="DEFAULT_VEHTYPE" speed="4.59" pos="12.08" lane="444418077_0" slope="0.00"/>
        <vehicle id="51" x="4584.67" y="20583.34" angle="86.27" type="DEFAULT_VEHTYPE" speed="2.13" pos="0.10" lane=":4418968003_8_0" slope="0.00"/>
        <vehicle id="52" x="4038.79" y="19681.46" angle="100.78" type="DEFAULT_VEHTYPE" speed="2.44" pos="7.54" lane="444428465#0_0" slope="0.00"/>
        <vehicle id="53" x="5847.86" y="21134.98" angle="-92.87" type="DEFAULT_VEHTYPE" speed="2.07" pos="7.17" lane="444400943_1" slope="0.00"/>
        <vehicle id="54" x="4287.26" y="20460.37" angle="-93.28" type="DEFAULT_VEHTYPE" speed="2.32" pos="7.42" lane="-444418076#0_0" slope="0.00"/>
        <vehicle id="56" x="5328.93" y="20455.42" angle="86.10" type="DEFAULT_VEHTYPE" speed="1.80" pos="6.90" lane="440771230#0_0" slope="0.00"/>
        <vehicle id="57" x="3982.20" y="20256.02" angle="160.97" type="DEFAULT_VEHTYPE" speed="1.33" pos="6.43" lane="444126142_0" slope="0.00"/>
        <vehicle id="58" x="5568.50" y="20438.92" angle="85.30" type="DEFAULT_VEHTYPE" speed="2.09" pos="7.19" lane="440771230#1_0" slope="0.00"/>
        <vehicle id="59" x="3949.32" y="20679.77" angle="-13.05" type="DEFAULT_VEHTYPE" speed="2.13" pos="7.23" lane="443987645#0_0" slope="0.00"/>
        <vehicle id="6" x="5277.95" y="21211.67" angle="167.42" type="DEFAULT_VEHTYPE" speed="4.71" pos="3.88" lane="441997995#1_0" slope="0.00"/>
        <vehicle id="60" x="4565.02" y="19729.10" angle="-22.25" type="DEFAULT_VEHTYPE" speed="0.00" pos="5.10" lane="444422734_0" slope="0.00"/>
        <vehicle id="61" x="4604.11" y="21374.21" angle="89.29" type="DEFAULT_VEHTYPE" speed="0.00" pos="5.10" lane="-440881469#3_0" slope="0.00"/>
        <vehicle id="62" x="4591.25" y="21294.48" angle="118.28" type="DEFAULT_VEHTYPE" speed="0.00" pos="0.99" lane="-359990752#1_0" slope="0.00"/>
        <vehicle id="63" x="5556.32" y="20009.95" angle="87.04" type="DEFAULT_VEHTYPE" speed="0.00" pos="1.24" lane="-456382186#0_0" slope="0.00"/>
        <vehicle id="64" x="4905.86" y="19659.29" angle="-87.79" type="DEFAULT_VEHTYPE" speed="0.00" pos="5.10" lane="444420600_0" slope="0.00"/>
        <vehicle id="65" x="5225.82" y="21132.35" angle="87.11" type="DEFAULT_VEHTYPE" speed="0.00" pos="5.10" lane="445078261#0_0" slope="0.00"/>
        <vehicle id="66" x="5788.57" y="21090.11" angle="-2.48" type="DEFAULT_VEHTYPE" speed="0.00" pos="5.10" lane="194344119#1_0" slope="0.00"/>
        <vehicle id="68" x="5313.38" y="21168.60" angle="-93.98" type="DEFAULT_VEHTYPE" speed="0.00" pos="5.10" lane="458084591#1_0" slope="0.00"/>
        <vehicle id="69" x="4774.41" y="20246.90" angle="134.58" type="DEFAULT_VEHTYPE" speed="0.00" pos="5.10" lane="444126146_0" slope="0.00"/>
        <vehicle id="7" x="5246.59" y="20725.78" angle="-39.82" type="DEFAULT_VEHTYPE" speed="4.32" pos="12.02" lane="440881562#0_0" slope="0.00"/>
        <vehicle id="70" x="3978.77" y="19976.09" angle="-172.12" type="DEFAULT_VEHTYPE" speed="0.00" pos="5.10" lane="444018067_0" slope="0.00"/>
        <vehicle id="71" x="4754.88" y="20500.94" angle="-3.15" type="DEFAULT_VEHTYPE" speed="0.00" pos="5.10" lane="27318112#7_0" slope="0.00"/>
        <vehicle id="73" x="5076.76" y="20710.22" angle="86.53" type="DEFAULT_VEHTYPE" speed="0.00" pos="5.10" lane="228124192_0" slope="0.00"/>
        <vehicle id="74" x="4599.72" y="20582.36" angle="86.61" type="DEFAULT_VEHTYPE" speed="0.00" pos="5.10" lane="-29141189#0_0" slope="0.00"/>
        <vehicle id="75" x="5643.54" y="19994.26" angle="-49.86" type="DEFAULT_VEHTYPE" speed="0.00" pos="5.10" lane="456384919_0" slope="0.00"/>
        <vehicle id="76" x="4284.04" y="19898.20" angle="-88.48" type="DEFAULT_VEHTYPE" speed="0.00" pos="5.10" lane="29141057#2_0" slope="0.00"/>
        <vehicle id="77" x="4587.38" y="21818.73" angle="-14.16" type="DEFAULT_VEHTYPE" speed="0.00" pos="5.10" lane="449785727#0_0" slope="0.00"/>
        <vehicle id="78" x="4534.32" y="19682.13" angle="-94.52" type="DEFAULT_VEHTYPE" speed="0.00" pos="5.10" lane="80912591#0_0" slope="0.00"/>
        <vehicle id="79" x="4591.75" y="20976.99" angle="-178.80" type="DEFAULT_VEHTYPE" speed="0.00" pos="5.10" lane="29141670#1_0" slope="0.00"/>
        <vehicle id="8" x="4322.37" y="20753.98" angle="84.15" type="DEFAULT_VEHTYPE" speed="4.14" pos="11.08" lane="457176635_0" slope="0.00"/>
        <vehicle id="9" x="3790.59" y="21470.04" angle="65.22" type="DEFAULT_VEHTYPE" speed="3.25" pos="10.21" lane="233337676_0" slope="0.00"/>
    </timestep>
    <timestep time="4.00">
        <vehicle id="0" x="3945.36" y="20304.71" angle="87.57" type="DEFAULT_VEHTYPE" speed="7.59" pos="23.22" lane="453294515_0" slope="0.00"/>
        <vehicle id="1" x="4309.69" y="21265.19" angle="175.09" type="DEFAULT_VEHTYPE" speed="8.31" pos="24.24" lane="-322629017#1_0" slope="0.00"/>
        <vehicle id="10" x="4633.15" y="20741.84" angle="93.45" type="DEFAULT_VEHTYPE" speed="4.87" pos="14.86" lane="119029073_0" slope="0.00"/>
        <vehicle id="11" x="4680.36" y="21168.03" angle="87.59" type="DEFAULT_VEHTYPE" speed="6.99" pos="19.56" lane="445014537#1_0" slope="0.00"/>
        <vehicle id="12" x="5839.67" y="20142.04" angle="1.75" type="DEFAULT_VEHTYPE" speed="6.41" pos="18.29" lane="442232082#2_0" slope="0.00"/>
        <vehicle id="13" x="4547.11" y="20749.99" angle="-1.40" type="DEFAULT_VEHTYPE" speed="5.22" pos="16.75" lane="457886988_0" slope="0.00"/>
        <vehicle id="14" x="4298.50" y="20583.43" angle="0.13" type="DEFAULT_VEHTYPE" speed="7.23" pos="19.52" lane="462138645#2_0" slope="0.00"/>
        <vehicle id="15" x="4314.96" y="20603.46" angle="85.30" type="DEFAULT_VEHTYPE" speed="5.63" pos="4.85" lane="-29141189#2_0" slope="0.00"/>
        <vehicle id="16" x="4308.87" y="20808.75" angle="179.18" type="DEFAULT_VEHTYPE" speed="5.89" pos="17.19" lane="453717289#0_0" slope="0.00"/>
        <vehicle id="17" x="4576.62" y="21305.87" angle="-0.60" type="DEFAULT_VEHTYPE" speed="4.98" pos="15.20" lane="429011445#1_0" slope="0.00"/>
        <vehicle id="18" x="4102.32" y="19705.67" angle="-48.23" type="DEFAULT_VEHTYPE" speed="5.23" pos="2.27" lane=":4418968044_0_0" slope="0.00"/>
        <vehicle id="19" x="5260.61" y="21132.82" angle="-1.72" type="DEFAULT_VEHTYPE" speed="5.64" pos="15.87" lane="441997996_0" slope="0.00"/>
        <vehicle id="2" x="4276.22" y="21149.77" angle="-91.20" type="DEFAULT_VEHTYPE" speed="5.05" pos="16.59" lane="-232602663#1_0" slope="0.00"/>
        <vehicle id="20" x="4761.57" y="20576.29" angle="-6.23" type="DEFAULT_VEHTYPE" speed="5.39" pos="16.21" lane="27318112#5_0" slope="0.00"/>
        <vehicle id="21" x="4574.22" y="19716.27" angle="0.98" type="DEFAULT_VEHTYPE" speed="5.89" pos="17.17" lane="457885320#6_1" slope="0.00"/>
        <vehicle id="22" x="5206.96" y="20237.10" angle="-89.16" type="DEFAULT_VEHTYPE" speed="5.90" pos="16.33" lane="440897034#1_0" slope="0.00"/>
        <vehicle id="23" x="5899.06" y="19633.08" angle="-174.78" type="DEFAULT_VEHTYPE" speed="5.30" pos="16.56" lane="194344114#1_0" slope="0.00"/>
        <vehicle id="24" x="4744.56" y="19885.18" angle="85.88" type="DEFAULT_VEHTYPE" speed="4.38" pos="14.61" lane="411044293_0" slope="0.00"/>
        <vehicle id="25" x="4623.60" y="20740.55" angle="105.50" type="DEFAULT_VEHTYPE" speed="0.00" pos="5.10" lane="119029073_0" slope="0.00"/>
        <vehicle id="26" x="4321.80" y="19895.41" angle="90.37" type="DEFAULT_VEHTYPE" speed="6.02" pos="17.34" lane="-29141057#0_0" slope="0.00"/>
        <vehicle id="27" x="3962.53" y="20249.33" angle="178.58" type="DEFAULT_VEHTYPE" speed="5.28" pos="16.25" lane="232602810_0" slope="0.00"/>
        <vehicle id="28" x="4307.42" y="19720.46" angle="-151.66" type="DEFAULT_VEHTYPE" speed="5.28" pos="15.54" lane="248282336#0_0" slope="0.00"/>
        <vehicle id="29" x="4298.46" y="20597.85" angle="0.13" type="DEFAULT_VEHTYPE" speed="0.00" pos="5.10" lane="462138645#2_0" slope="0.00"/>
        <vehicle id="3" x="5281.82" y="20510.25" angle="179.06" type="DEFAULT_VEHTYPE" speed="6.26" pos="18.20" lane="440897382#2_0" slope="0.00"/>
        <vehicle id="30" x="4624.60" y="19655.91" angle="86.43" type="DEFAULT_VEHTYPE" speed="6.82" pos="14.44" lane=":2550892377_0_0" slope="0.00"/>
        <vehicle id="31" x="3947.66" y="21340.18" angle="75.31" type="DEFAULT_VEHTYPE" speed="5.93" pos="16.71" lane="440044936#1_0" slope="0.00"/>
        <vehicle id="32" x="5247.49" y="20205.29" angle="86.35" type="DEFAULT_VEHTYPE" speed="5.42" pos="16.50" lane="440881632#1_0" slope="0.00"/>
        <vehicle id="33" x="4536.13" y="20761.87" angle="-178.06" type="DEFAULT_VEHTYPE" speed="6.03" pos="17.03" lane="453717285_0" slope="0.00"/>
        <vehicle id="34" x="3948.11" y="21046.58" angle="3.32" type="DEFAULT_VEHTYPE" speed="5.16" pos="14.78" lane="444014976_0" slope="0.00"/>
        <vehicle id="35" x="3929.36" y="20308.69" angle="90.16" type="DEFAULT_VEHTYPE" speed="1.98" pos="7.08" lane="453294515_1" slope="0.00"/>
        <vehicle id="36" x="5286.98" y="21144.82" angle="2.28" type="DEFAULT_VEHTYPE" speed="7.11" pos="19.84" lane="441997998_0" slope="0.00"/>
        <vehicle id="37" x="4805.73" y="20729.49" angle="85.92" type="DEFAULT_VEHTYPE" speed="7.14" pos="19.48" lane="228124193_0" slope="0.00"/>