<?xml version="1.0" encoding="UTF-8"?>

<!-- generated on 03/16/16 22:43:59 by SUMO Version 0.23.0
<?xml version="1.0" encoding="UTF-8"?>

<configuration xmlns:xsi="http://www.w3.org/2001/XMLSchema-instance" xsi:noNamespaceSchemaLocation="http://sumo.dlr.de/xsd/sumoConfiguration.xsd">

    <input>
        <net-file value="input_net.net.xml"/>
        <route-files value="routes.rou.xml"/>
    </input>

    <output>
        <fcd-output value="fcdoutput.xml"/>
    </output>

</configuration>
-->

<fcd-export xmlns:xsi="http://www.w3.org/2001/XMLSchema-instance" xsi:noNamespaceSchemaLocation="http://sumo.dlr.de/xsd/fcd_file.xsd">
    <timestep time="0.00">
        <vehicle id="0" x="-4.95" y="39.69" angle="0.00" type="DEFAULT_VEHTYPE" speed="0.00" pos="5.10" lane="0/1to0/0_0" slope="0.00"/>
        <vehicle id="1" x="39.69" y="54.95" angle="-90.00" type="DEFAULT_VEHTYPE" speed="0.00" pos="5.10" lane="1/1to0/1_0" slope="0.00"/>
    </timestep>
    <timestep time="1.00">
        <vehicle id="0" x="-1.65" y="38.45" angle="0.00" type="DEFAULT_VEHTYPE" speed="1.67" pos="6.77" lane="0/1to0/0_1" slope="0.00"/>
        <vehicle id="1" x="38.62" y="54.95" angle="-90.00" type="DEFAULT_VEHTYPE" speed="1.44" pos="6.54" lane="1/1to0/1_0" slope="0.00"/>
        <vehicle id="10" x="39.69" y="4.95" angle="-90.00" type="DEFAULT_VEHTYPE" speed="0.00" pos="5.10" lane="1/0to0/0_0" slope="0.00"/>
        <vehicle id="16" x="10.31" y="-4.95" angle="90.00" type="DEFAULT_VEHTYPE" speed="0.00" pos="5.10" lane="0/0to1/0_0" slope="0.00"/>
        <vehicle id="17" x="45.05" y="39.69" angle="0.00" type="DEFAULT_VEHTYPE" speed="0.00" pos="5.10" lane="1/1to1/0_0" slope="0.00"/>
        <vehicle id="18" x="54.95" y="10.31" angle="180.00" type="DEFAULT_VEHTYPE" speed="0.00" pos="5.10" lane="1/0to1/1_0" slope="0.00"/>
        <vehicle id="4" x="-4.95" y="39.69" angle="0.00" type="DEFAULT_VEHTYPE" speed="0.00" pos="5.10" lane="0/1to0/0_0" slope="0.00"/>
        <vehicle id="5" x="4.95" y="10.31" angle="180.00" type="DEFAULT_VEHTYPE" speed="0.00" pos="5.10" lane="0/0to0/1_0" slope="0.00"/>
        <vehicle id="9" x="10.31" y="45.05" angle="90.00" type="DEFAULT_VEHTYPE" speed="0.00" pos="5.10" lane="0/1to1/1_0" slope="0.00"/>
    </timestep>
    <timestep time="2.00">
        <vehicle id="0" x="-1.65" y="35.82" angle="0.00" type="DEFAULT_VEHTYPE" speed="3.56" pos="10.34" lane="0/1to0/0_1" slope="0.00"/>
        <vehicle id="1" x="36.35" y="54.95" angle="-90.00" type="DEFAULT_VEHTYPE" speed="3.07" pos="9.61" lane="1/1to0/1_0" slope="0.00"/>
        <vehicle id="10" x="38.33" y="4.95" angle="-90.00" type="DEFAULT_VEHTYPE" speed="1.83" pos="6.93" lane="1/0to0/0_0" slope="0.00"/>
        <vehicle id="14" x="10.31" y="45.05" angle="90.00" type="DEFAULT_VEHTYPE" speed="0.00" pos="5.10" lane="0/1to1/1_0" slope="0.00"/>
        <vehicle id="16" x="11.52" y="-1.65" angle="90.00" type="DEFAULT_VEHTYPE" speed="1.63" pos="6.73" lane="0/0to1/0_1" slope="0.00"/>
        <vehicle id="17" x="45.05" y="37.81" angle="0.00" type="DEFAULT_VEHTYPE" speed="2.54" pos="7.64" lane="1/1to1/0_0" slope="0.00"/>
        <vehicle id="18" x="54.95" y="11.76" angle="180.00" type="DEFAULT_VEHTYPE" speed="1.96" pos="7.06" lane="1/0to1/1_0" slope="0.00"/>
        <vehicle id="4" x="-4.95" y="37.77" angle="0.00" type="DEFAULT_VEHTYPE" speed="2.59" pos="7.69" lane="0/1to0/0_0" slope="0.00"/>
        <vehicle id="5" x="1.65" y="12.00" angle="180.00" type="DEFAULT_VEHTYPE" speed="2.28" pos="7.38" lane="0/0to0/1_1" slope="0.00"/>
        <vehicle id="7" x="4.95" y="10.31" angle="180.00" type="DEFAULT_VEHTYPE" speed="0.00" pos="5.10" lane="0/0to0/1_0" slope="0.00"/>
        <vehicle id="9" x="12.19" y="48.35" angle="90.00" type="DEFAULT_VEHTYPE" speed="2.54" pos="7.64" lane="0/1to1/1_1" slope="0.00"/>
    </timestep>
    <timestep time="3.00">
        <vehicle id="0" x="-1.65" y="31.93" angle="0.00" type="DEFAULT_VEHTYPE" speed="5.28" pos="15.61" lane="0/1to0/0_1" slope="0.00"/>
        <vehicle id="1" x="32.21" y="51.65" angle="-90.00" type="DEFAULT_VEHTYPE" speed="5.61" pos="15.23" lane="1/1to0/1_1" slope="0.00"/>
        <vehicle id="10" x="35.12" y="1.65" angle="-90.00" type="DEFAULT_VEHTYPE" speed="4.35" pos="11.29" lane="1/0to0/0_1" slope="0.00"/>
        <vehicle id="12" x="39.69" y="4.95" angle="-90.00" type="DEFAULT_VEHTYPE" speed="0.00" pos="5.10" lane="1/0to0/0_0" slope="0.00"/>
        <vehicle id="14" x="11.39" y="45.05" angle="90.00" type="DEFAULT_VEHTYPE" speed="1.46" pos="6.56" lane="0/1to1/1_0" slope="0.00"/>
        <vehicle id="16" x="14.20" y="-1.65" angle="90.00" type="DEFAULT_VEHTYPE" speed="3.63" pos="10.36" lane="0/0to1/0_1" slope="0.00"/>
        <vehicle id="17" x="45.05" y="34.56" angle="0.00" type="DEFAULT_VEHTYPE" speed="4.40" pos="12.05" lane="1/1to1/0_0" slope="0.00"/>
        <vehicle id="18" x="54.95" y="14.87" angle="180.00" type="DEFAULT_VEHTYPE" speed="4.22" pos="11.28" lane="1/0to1/1_0" slope="0.00"/>
        <vehicle id="2" x="39.69" y="54.95" angle="-90.00" type="DEFAULT_VEHTYPE" speed="0.00" pos="5.10" lane="1/1to0/1_0" slope="0.00"/>
        <vehicle id="4" x="-4.95" y="34.43" angle="0.00" type="DEFAULT_VEHTYPE" speed="4.53" pos="12.22" lane="0/1to0/0_0" slope="0.00"/>
        <vehicle id="5" x="1.65" y="14.95" angle="180.00" type="DEFAULT_VEHTYPE" speed="4.00" pos="11.38" lane="0/0to0/1_1" slope="0.00"/>
        <vehicle id="7" x="4.95" y="11.92" angle="180.00" type="DEFAULT_VEHTYPE" speed="2.18" pos="7.28" lane="0/0to0/1_0" slope="0.00"/>
        <vehicle id="9" x="15.55" y="48.35" angle="90.00" type="DEFAULT_VEHTYPE" speed="4.56" pos="12.20" lane="0/1to1/1_1" slope="0.00"/>
    </timestep>
    <timestep time="4.00">
        <vehicle id="0" x="-1.65" y="26.48" angle="0.00" type="DEFAULT_VEHTYPE" speed="7.38" pos="22.99" lane="0/1to0/0_1" slope="0.00"/>
        <vehicle id="1" x="26.45" y="51.65" angle="-90.00" type="DEFAULT_VEHTYPE" speed="7.81" pos="23.04" lane="1/1to0/1_1" slope="0.00"/>
        <vehicle id="10" x="30.59" y="1.65" angle="-90.00" type="DEFAULT_VEHTYPE" speed="6.13" pos="17.42" lane="1/0to0/0_1" slope="0.00"/>
        <vehicle id="12" x="37.99" y="1.65" angle="-90.00" type="DEFAULT_VEHTYPE" speed="2.29" pos="7.39" lane="1/0to0/0_1" slope="0.00"/>
        <vehicle id="14" x="14.37" y="45.05" angle="90.00" type="DEFAULT_VEHTYPE" speed="4.04" pos="10.60" lane="0/1to1/1_0" slope="0.00"/>
        <vehicle id="16" x="18.00" y="-1.65" angle="90.00" type="DEFAULT_VEHTYPE" speed="5.16" pos="15.52" lane="0/0to1/0_1" slope="0.00"/>
        <vehicle id="17" x="48.35" y="29.77" angle="0.00" type="DEFAULT_VEHTYPE" speed="6.49" pos="18.53" lane="1/1to1/0_1" slope="0.00"/>
        <vehicle id="18" x="54.95" y="19.38" angle="180.00" type="DEFAULT_VEHTYPE" speed="6.11" pos="17.39" lane="1/0to1/1_0" slope="0.00"/>
        <vehicle id="2" x="37.92" y="54.95" angle="-90.00" type="DEFAULT_VEHTYPE" speed="2.39" pos="7.49" lane="1/1to0/1_0" slope="0.00"/>
        <vehicle id="4" x="-1.65" y="33.96" angle="0.00" type="DEFAULT_VEHTYPE" speed="0.64" pos="12.85" lane="0/1to0/0_1" slope="0.00"/>
        <vehicle id="5" x="1.65" y="19.37" angle="180.00" type="DEFAULT_VEHTYPE" speed="5.99" pos="17.37" lane="0/0to0/1_1" slope="0.00"/>
        <vehicle id="6" x="-4.95" y="39.69" angle="0.00" type="DEFAULT_VEHTYPE" speed="0.00" pos="5.10" lane="0/1to0/0_0" slope="0.00"/>
        <vehicle id="7" x="4.95" y="15.31" angle="180.00" type="DEFAULT_VEHTYPE" speed="4.59" pos="11.87" lane="0/0to0/1_0" slope="0.00"/>
        <vehicle id="9" x="20.41" y="48.35" angle="90.00" type="DEFAULT_VEHTYPE" speed="6.58" pos="18.78" lane="0/1to1/1_1" slope="0.00"/>
    </timestep>
    <timestep time="5.00">
        <vehicle id="0" x="-1.65" y="19.66" angle="0.00" type="DEFAULT_VEHTYPE" speed="9.24" pos="32.23" lane="0/1to0/0_1" slope="0.00"/>
        <vehicle id="1" x="19.42" y="51.65" angle="-90.00" type="DEFAULT_VEHTYPE" speed="9.52" pos="32.56" lane="1/1to0/1_1" slope="0.00"/>
        <vehicle id="10" x="24.47" y="1.65" angle="-90.00" type="DEFAULT_VEHTYPE" speed="8.30" pos="25.72" lane="1/0to0/0_1" slope="0.00"/>
        <vehicle id="12" x="35.05" y="1.65" angle="-90.00" type="DEFAULT_VEHTYPE" speed="3.99" pos="11.38" lane="1/0to0/0_1" slope="0.00"/>
        <vehicle id="13" x="4.95" y="10.31" angle="180.00" type="DEFAULT_VEHTYPE" speed="0.00" pos="5.10" lane="0/0to0/1_0" slope="0.00"/>
        <vehicle id="14" x="14.49" y="48.35" angle="90.00" type="DEFAULT_VEHTYPE" speed="0.15" pos="10.75" lane="0/1to1/1_1" slope="0.00"/>
        <vehicle id="16" x="23.33" y="-1.65" angle="90.00" type="DEFAULT_VEHTYPE" speed="7.22" pos="22.74" lane="0/0to1/0_1" slope="0.00"/>
        <vehicle id="17" x="48.35" y="23.09" angle="0.00" type="DEFAULT_VEHTYPE" speed="9.05" pos="27.59" lane="1/1to1/0_1" slope="0.00"/>
        <vehicle id="18" x="54.95" y="25.56" angle="180.00" type="DEFAULT_VEHTYPE" speed="8.37" pos="25.75" lane="1/0to1/1_0" slope="0.00"/>
        <vehicle id="19" x="10.31" y="45.05" angle="90.00" type="DEFAULT_VEHTYPE" speed="0.00" pos="5.10" lane="0/1to1/1_0" slope="0.00"/>
        <vehicle id="2" x="35.01" y="54.95" angle="-90.00" type="DEFAULT_VEHTYPE" speed="3.94" pos="11.43" lane="1/1to0/1_0" slope="0.00"/>
        <vehicle id="4" x="-1.65" y="31.81" angle="0.00" type="DEFAULT_VEHTYPE" speed="2.92" pos="15.78" lane="0/1to0/0_1" slope="0.00"/>
        <vehicle id="5" x="1.65" y="25.65" angle="180.00" type="DEFAULT_VEHTYPE" speed="8.51" pos="25.89" lane="0/0to0/1_1" slope="0.00"/>
        <vehicle id="6" x="-4.95" y="37.85" angle="0.00" type="DEFAULT_VEHTYPE" speed="2.48" pos="7.58" lane="0/1to0/0_0" slope="0.00"/>
        <vehicle id="7" x="1.65" y="15.82" angle="180.00" type="DEFAULT_VEHTYPE" speed="0.70" pos="12.56" lane="0/0to0/1_1" slope="0.00"/>
        <vehicle id="9" x="26.72" y="48.35" angle="90.00" type="DEFAULT_VEHTYPE" speed="8.55" pos="27.33" lane="0/1to1/1_1" slope="0.00"/>
    </timestep>
    <timestep time="6.00">
        <vehicle id="0" x="-1.65" y="12.61" angle="0.00" type="DEFAULT_VEHTYPE" speed="9.56" pos="41.79" lane="0/1to0/0_1" slope="0.00"/>
        <vehicle id="1" x="11.16" y="51.65" angle="-90.00" type="DEFAULT_VEHTYPE" speed="11.19" pos="43.76" lane="1/1to0/1_1" slope="0.00"/>
        <vehicle id="10" x="17.00" y="1.65" angle="-90.00" type="DEFAULT_VEHTYPE" speed="10.13" pos="35.84" lane="1/0to0/0_1" slope="0.00"/>
        <vehicle id="12" x="30.85" y="1.65" angle="-90.00" type="DEFAULT_VEHTYPE" speed="5.69" pos="17.07" lane="1/0to0/0_1" slope="0.00"/>
        <vehicle id="13" x="4.95" y="12.06" angle="180.00" type="DEFAULT_VEHTYPE" speed="2.36" pos="7.46" lane="0/0to0/1_0" slope="0.00"/>
        <vehicle id="14" x="15.96" y="48.35" angle="90.00" type="DEFAULT_VEHTYPE" speed="2.00" pos="12.75" lane="0/1to1/1_1" slope="0.00"/>
        <vehicle id="16" x="30.28" y="-1.65" angle="90.00" type="DEFAULT_VEHTYPE" speed="9.42" pos="32.16" lane="0/0to1/0_1" slope="0.00"/>
        <vehicle id="17" x="48.35" y="15.14" angle="0.00" type="DEFAULT_VEHTYPE" speed="10.78" pos="38.37" lane="1/1to1/0_1" slope="0.00"/>
        <vehicle id="18" x="54.95" y="33.49" angle="180.00" type="DEFAULT_VEHTYPE" speed="10.75" pos="36.50" lane="1/0to1/1_0" slope="0.00"/>
        <vehicle id="19" x="11.32" y="45.05" angle="90.00" type="DEFAULT_VEHTYPE" speed="1.36" pos="6.46" lane="0/1to1/1_0" slope="0.00"/>
        <vehicle id="2" x="30.22" y="54.95" angle="-90.00" type="DEFAULT_VEHTYPE" speed="6.50" pos="17.93" lane="1/1to0/1_0" slope="0.00"/>
        <vehicle id="4" x="-1.65" y="27.80" angle="0.00" type="DEFAULT_VEHTYPE" speed="5.42" pos="21.20" lane="0/1to0/0_1" slope="0.00"/>
        <vehicle id="5" x="1.65" y="32.96" angle="180.00" type="DEFAULT_VEHTYPE" speed="9.90" pos="35.78" lane="0/0to0/1_1" slope="0.00"/>
        <vehicle id="6" x="-4.95" y="34.23" angle="0.00" type="DEFAULT_VEHTYPE" speed="4.90" pos="12.49" lane="0/1to0/0_0" slope="0.00"/>
        <vehicle id="7" x="1.65" y="17.33" angle="180.00" type="DEFAULT_VEHTYPE" speed="2.05" pos="14.61" lane="0/0to0/1_1" slope="0.00"/>
        <vehicle id="9" x="34.48" y="48.35" angle="90.00" type="DEFAULT_VEHTYPE" speed="10.51" pos="37.84" lane="0/1to1/1_1" slope="0.00"/>
    </timestep>
    <timestep time="7.00">
        <vehicle id="0" x="-1.65" y="8.03" angle="0.00" type="DEFAULT_VEHTYPE" speed="6.20" pos="47.99" lane="0/1to0/0_1" slope="0.00"/>
        <vehicle id="1" x="-1.65" y="40.49" angle="-38.68" type="DEFAULT_VEHTYPE" speed="10.25" pos="4.01" lane="0/1to0/0_1" slope="0.00"/>
        <vehicle id="10" x="8.51" y="1.65" angle="-90.00" type="DEFAULT_VEHTYPE" speed="11.50" pos="47.35" lane="1/0to0/0_1" slope="0.00"/>
        <vehicle id="12" x="24.91" y="1.65" angle="-90.00" type="DEFAULT_VEHTYPE" speed="8.06" pos="25.13" lane="1/0to0/0_1" slope="0.00"/>
        <vehicle id="13" x="4.95" y="15.70" angle="180.00" type="DEFAULT_VEHTYPE" speed="4.93" pos="12.39" lane="0/0to0/1_0" slope="0.00"/>
        <vehicle id="14" x="18.81" y="48.35" angle="90.00" type="DEFAULT_VEHTYPE" speed="3.86" pos="16.61" lane="0/1to1/1_1" slope="0.00"/>
        <vehicle id="16" x="37.42" y="-1.65" angle="90.00" type="DEFAULT_VEHTYPE" speed="9.67" pos="41.83" lane="0/0to1/0_1" slope="0.00"/>
        <vehicle id="17" x="48.35" y="6.83" angle="0.00" type="DEFAULT_VEHTYPE" speed="11.25" pos="49.62" lane="1/1to1/0_1" slope="0.00"/>
        <vehicle id="18" x="54.95" y="42.99" angle="180.00" type="DEFAULT_VEHTYPE" speed="12.87" pos="49.38" lane="1/0to1/1_0" slope="0.00"/>
        <vehicle id="19" x="14.06" y="45.05" angle="90.00" type="DEFAULT_VEHTYPE" speed="3.72" pos="10.18" lane="0/1to1/1_0" slope="0.00"/>
        <vehicle id="2" x="23.84" y="54.95" angle="-90.00" type="DEFAULT_VEHTYPE" speed="8.64" pos="26.58" lane="1/1to0/1_0" slope="0.00"/>
        <vehicle id="4" x="-1.65" y="22.23" angle="0.00" type="DEFAULT_VEHTYPE" speed="7.55" pos="28.76" lane="0/1to0/0_1" slope="0.00"/>
        <vehicle id="5" x="1.65" y="38.54" angle="180.00" type="DEFAULT_VEHTYPE" speed="7.57" pos="43.35" lane="0/0to0/1_1" slope="0.00"/>
        <vehicle id="6" x="-4.95" y="33.49" angle="0.00" type="DEFAULT_VEHTYPE" speed="1.01" pos="13.50" lane="0/1to0/0_0" slope="0.00"/>
        <vehicle id="7" x="1.65" y="20.61" angle="180.00" type="DEFAULT_VEHTYPE" speed="4.44" pos="19.06" lane="0/0to0/1_1" slope="0.00"/>
        <vehicle id="9" x="40.17" y="48.35" angle="90.00" type="DEFAULT_VEHTYPE" speed="7.72" pos="45.56" lane="0/1to1/1_1" slope="0.00"/>
    </timestep>
    <timestep time="8.00">
        <vehicle id="0" x="-1.65" y="6.64" angle="0.00" type="DEFAULT_VEHTYPE" speed="1.89" pos="49.88" lane="0/1to0/0_1" slope="0.00"/>
        <vehicle id="1" x="-1.65" y="32.93" angle="0.00" type="DEFAULT_VEHTYPE" speed="10.25" pos="14.26" lane="0/1to0/0_1" slope="0.00"/>
        <vehicle id="10" x="1.65" y="10.76" angle="180.00" type="DEFAULT_VEHTYPE" speed="8.35" pos="5.70" lane="0/0to0/1_1" slope="0.00"/>
        <vehicle id="12" x="17.45" y="1.65" angle="-90.00" type="DEFAULT_VEHTYPE" speed="10.11" pos="35.23" lane="1/0to0/0_1" slope="0.00"/>
        <vehicle id="13" x="4.95" y="16.47" angle="180.00" type="DEFAULT_VEHTYPE" speed="1.04" pos="13.44" lane="0/0to0/1_0" slope="0.00"/>
        <vehicle id="14" x="23.02" y="48.35" angle="90.00" type="DEFAULT_VEHTYPE" speed="5.70" pos="22.31" lane="0/1to1/1_1" slope="0.00"/>
        <vehicle id="15" x="4.95" y="10.31" angle="180.00" type="DEFAULT_VEHTYPE" speed="0.00" pos="5.10" lane="0/0to0/1_0" slope="0.00"/>
        <vehicle id="16" x="41.24" y="-1.65" angle="90.00" type="DEFAULT_VEHTYPE" speed="5.17" pos="47.00" lane="0/0to1/0_1" slope="0.00"/>
        <vehicle id="17" x="35.31" y="1.65" angle="-90.00" type="DEFAULT_VEHTYPE" speed="11.41" pos="11.03" lane="1/0to0/0_1" slope="0.00"/>
        <vehicle id="18" x="35.12" y="54.95" angle="-90.00" type="DEFAULT_VEHTYPE" speed="11.91" pos="11.28" lane="1/1to0/1_0" slope="0.00"/>
        <vehicle id="19" x="18.38" y="45.05" angle="90.00" type="DEFAULT_VEHTYPE" speed="5.85" pos="16.03" lane="0/1to1/1_0" slope="0.00"/>
        <vehicle id="2" x="16.38" y="54.95" angle="-90.00" type="DEFAULT_VEHTYPE" speed="10.11" pos="36.68" lane="1/1to0/1_0" slope="0.00"/>
        <vehicle id="4" x="-1.65" y="15.90" angle="0.00" type="DEFAULT_VEHTYPE" speed="8.57" pos="37.33" lane="0/1to0/0_1" slope="0.00"/>
        <vehicle id="5" x="1.65" y="41.70" angle="180.00" type="DEFAULT_VEHTYPE" speed="4.27" pos="47.63" lane="0/0to0/1_1" slope="0.00"/>
        <vehicle id="6" x="-4.95" y="31.42" angle="0.00" type="DEFAULT_VEHTYPE" speed="2.80" pos="16.30" lane="0/1to0/0_0" slope="0.00"/>
        <vehicle id="7" x="1.65" y="25.63" angle="180.00" type="DEFAULT_VEHTYPE" speed="6.79" pos="25.85" lane="0/0to0/1_1" slope="0.00"/>
        <vehicle id="9" x="42.55" y="48.35" angle="90.00" type="DEFAULT_VEHTYPE" speed="3.22" pos="48.78" lane="0/1to1/1_1" slope="0.00"/>
    </timestep>
    <timestep time="9.00">
        <vehicle id="0" x="-1.65" y="6.63" angle="0.00" type="DEFAULT_VEHTYPE" speed="0.01" pos="49.89" lane="0/1to0/0_1" slope="0.00"/>
        <vehicle id="1" x="-1.65" y="25.37" angle="0.00" type="DEFAULT_VEHTYPE" speed="10.25" pos="24.50" lane="0/1to0/0_1" slope="0.00"/>
        <vehicle id="10" x="1.65" y="16.92" angle="180.00" type="DEFAULT_VEHTYPE" speed="8.35" pos="14.05" lane="0/0to0/1_1" slope="0.00"/>
        <vehicle id="12" x="11.63" y="1.65" angle="-90.00" type="DEFAULT_VEHTYPE" speed="7.89" pos="43.12" lane="1/0to0/0_1" slope="0.00"/>
        <vehicle id="13" x="4.95" y="18.76" angle="180.00" type="DEFAULT_VEHTYPE" speed="3.11" pos="16.54" lane="0/0to0/1_0" slope="0.00"/>
        <vehicle id="14" x="28.21" y="48.35" angle="90.00" type="DEFAULT_VEHTYPE" speed="7.04" pos="29.35" lane="0/1to1/1_1" slope="0.00"/>
        <vehicle id="15" x="4.95" y="10.82" angle="180.00" type="DEFAULT_VEHTYPE" speed="0.69" pos="5.79" lane="0/0to0/1_0" slope="0.00"/>
        <vehicle id="16" x="42.07" y="-1.65" angle="90.00" type="DEFAULT_VEHTYPE" speed="1.12" pos="48.13" lane="0/0to1/0_1" slope="0.00"/>
        <vehicle id="17" x="26.70" y="1.65" angle="-90.00" type="DEFAULT_VEHTYPE" speed="11.66" pos="22.70" lane="1/0to0/0_1" slope="0.00"/>
        <vehicle id="18" x="26.50" y="54.95" angle="-90.00" type="DEFAULT_VEHTYPE" speed="11.69" pos="22.97" lane="1/1to0/1_0" slope="0.00"/>
        <vehicle id="19" x="24.33" y="45.05" angle="90.00" type="DEFAULT_VEHTYPE" speed="8.06" pos="24.10" lane="0/1to1/1_0" slope="0.00"/>
        <vehicle id="2" x="8.25" y="54.95" angle="-90.00" type="DEFAULT_VEHTYPE" speed="11.01" pos="47.70" lane="1/1to0/1_0" slope="0.00"/>
        <vehicle id="3" x="39.69" y="54.95" angle="-90.00" type="DEFAULT_VEHTYPE" speed="0.00" pos="5.10" lane="1/1to0/1_0" slope="0.00"/>
        <vehicle id="4" x="-1.65" y="12.48" angle="0.00" type="DEFAULT_VEHTYPE" speed="4.64" pos="41.97" lane="0/1to0/0_1" slope="0.00"/>
        <vehicle id="5" x="1.65" y="42.50" angle="180.00" type="DEFAULT_VEHTYPE" speed="1.08" pos="48.71" lane="0/0to0/1_1" slope="0.00"/>
        <vehicle id="6" x="-4.95" y="27.70" angle="0.00" type="DEFAULT_VEHTYPE" speed="5.04" pos="21.34" lane="0/1to0/0_0" slope="0.00"/>
        <vehicle id="7" x="1.65" y="31.78" angle="180.00" type="DEFAULT_VEHTYPE" speed="8.33" pos="34.18" lane="0/0to0/1_1" slope="0.00"/>
        <vehicle id="9" x="42.66" y="48.35" angle="90.00" type="DEFAULT_VEHTYPE" speed="0.16" pos="48.93" lane="0/1to1/1_1" slope="0.00"/>
    </timestep>
    <timestep time="10.00">
        <vehicle id="0" x="-1.65" y="6.63" angle="0.00" type="DEFAULT_VEHTYPE" speed="0.00" pos="49.90" lane="0/1to0/0_1" slope="0.00"/>
        <vehicle id="1" x="-1.65" y="20.41" angle="0.00" type="DEFAULT_VEHTYPE" speed="6.72" pos="31.22" lane="0/1to0/0_1" slope="0.00"/>
        <vehicle id="10" x="1.65" y="23.09" angle="180.00" type="DEFAULT_VEHTYPE" speed="8.35" pos="22.41" lane="0/0to0/1_1" slope="0.00"/>
        <vehicle id="12" x="8.48" y="1.65" angle="-90.00" type="DEFAULT_VEHTYPE" speed="4.26" pos="47.38" lane="1/0to0/0_1" slope="0.00"/>
        <vehicle id="13" x="4.95" y="22.32" angle="180.00" type="DEFAULT_VEHTYPE" speed="4.83" pos="21.37" lane="0/0to0/1_0" slope="0.00"/>
        <vehicle id="14" x="34.29" y="48.35" angle="90.00" type="DEFAULT_VEHTYPE" speed="8.24" pos="37.59" lane="0/1to1/1_1" slope="0.00"/>
        <vehicle id="15" x="4.95" y="12.28" angle="180.00" type="DEFAULT_VEHTYPE" speed="1.98" pos="7.77" lane="0/0to0/1_0" slope="0.00"/>
        <vehicle id="16" x="42.59" y="-1.65" angle="90.00" type="DEFAULT_VEHTYPE" speed="0.71" pos="48.84" lane="0/0to1/0_1" slope="0.00"/>
        <vehicle id="17" x="19.49" y="1.65" angle="-90.00" type="DEFAULT_VEHTYPE" speed="9.77" pos="32.47" lane="1/0to0/0_1" slope="0.00"/>
        <vehicle id="18" x="17.48" y="54.95" angle="-90.00" type="DEFAULT_VEHTYPE" speed="12.22" pos="35.19" lane="1/1to0/1_0" slope="0.00"/>
        <vehicle id="19" x="31.83" y="45.05" angle="90.00" type="DEFAULT_VEHTYPE" speed="10.16" pos="34.25" lane="0/1to1/1_0" slope="0.00"/>
        <vehicle id="2" x="-4.95" y="38.06" angle="0.00" type="DEFAULT_VEHTYPE" speed="9.61" pos="7.31" lane="0/1to0/0_0" slope="0.00"/>
        <vehicle id="3" x="38.18" y="51.65" angle="-90.00" type="DEFAULT_VEHTYPE" speed="2.04" pos="7.14" lane="1/1to0/1_1" slope="0.00"/>
        <vehicle id="4" x="-1.65" y="12.19" angle="0.00" type="DEFAULT_VEHTYPE" speed="0.39" pos="42.36" lane="0/1to0/0_1" slope="0.00"/>
        <vehicle id="5" x="1.65" y="42.63" angle="180.00" type="DEFAULT_VEHTYPE" speed="0.19" pos="48.89" lane="0/0to0/1_1" slope="0.00"/>
        <vehicle id="6" x="-1.65" y="26.86" angle="0.00" type="DEFAULT_VEHTYPE" speed="1.15" pos="22.49" lane="0/1to0/0_1" slope="0.00"/>
        <vehicle id="7" x="1.65" y="35.89" angle="180.00" type="DEFAULT_VEHTYPE" speed="5.58" pos="39.76" lane="0/0to0/1_1" slope="0.00"/>
        <vehicle id="8" x="39.69" y="54.95" angle="-90.00" type="DEFAULT_VEHTYPE" speed="0.00" pos="5.10" lane="1/1to0/1_0" slope="0.00"/>
        <vehicle id="9" x="42.70" y="48.35" angle="90.00" type="DEFAULT_VEHTYPE" speed="0.05" pos="48.98" lane="0/1to1/1_1" slope="0.00"/>
    </timestep>
    <timestep time="11.00">
        <vehicle id="0" x="-1.65" y="6.63" angle="0.00" type="DEFAULT_VEHTYPE" speed="0.00" pos="49.90" lane="0/1to0/0_1" slope="0.00"/>
        <vehicle id="1" x="-1.65" y="18.19" angle="0.00" type="DEFAULT_VEHTYPE" speed="3.01" pos="34.23" lane="0/1to0/0_1" slope="0.00"/>
        <vehicle id="10" x="1.65" y="28.73" angle="180.00" type="DEFAULT_VEHTYPE" speed="7.65" pos="30.06" lane="0/0to0/1_1" slope="0.00"/>
        <vehicle id="12" x="7.51" y="1.65" angle="-90.00" type="DEFAULT_VEHTYPE" speed="1.31" pos="48.69" lane="1/0to0/0_1" slope="0.00"/>
        <vehicle id="13" x="1.65" y="23.02" angle="180.00" type="DEFAULT_VEHTYPE" speed="0.94" pos="22.31" lane="0/0to0/1_1" slope="0.00"/>
        <vehicle id="14" x="37.05" y="48.35" angle="90.00" type="DEFAULT_VEHTYPE" speed="3.74" pos="41.32" lane="0/1to1/1_1" slope="0.00"/>
        <vehicle id="15" x="4.95" y="15.65" angle="180.00" type="DEFAULT_VEHTYPE" speed="4.56" pos="12.33" lane="0/0to0/1_0" slope="0.00"/>
        <vehicle id="16" x="42.66" y="-1.65" angle="90.00" type="DEFAULT_VEHTYPE" speed="0.09" pos="48.93" lane="0/0to1/0_1" slope="0.00"/>
        <vehicle id="17" x="15.59" y="1.65" angle="-90.00" type="DEFAULT_VEHTYPE" speed="5.27" pos="37.75" lane="1/0to0/0_1" slope="0.00"/>
        <vehicle id="18" x="9.32" y="54.95" angle="-90.00" type="DEFAULT_VEHTYPE" speed="11.06" pos="46.25" lane="1/1to0/1_0" slope="0.00"/>
        <vehicle id="19" x="40.33" y="45.05" angle="90.00" type="DEFAULT_VEHTYPE" speed="11.53" pos="45.78" lane="0/1to1/1_0" slope="0.00"/>
        <vehicle id="2" x="-4.95" y="29.81" angle="0.00" type="DEFAULT_VEHTYPE" speed="11.17" pos="18.48" lane="0/1to0/0_0" slope="0.00"/>
        <vehicle id="3" x="35.02" y="51.65" angle="-90.00" type="DEFAULT_VEHTYPE" speed="4.28" pos="11.42" lane="1/1to0/1_1" slope="0.00"/>
        <vehicle id="4" x="-1.65" y="12.17" angle="0.00" type="DEFAULT_VEHTYPE" speed="0.02" pos="42.38" lane="0/1to0/0_1" slope="0.00"/>
        <vehicle id="5" x="1.65" y="42.69" angle="180.00" type="DEFAULT_VEHTYPE" speed="0.07" pos="48.97" lane="0/0to0/1_1" slope="0.00"/>
        <vehicle id="6" x="-1.65" y="25.18" angle="0.00" type="DEFAULT_VEHTYPE" speed="2.27" pos="24.76" lane="0/1to0/0_1" slope="0.00"/>
        <vehicle id="7" x="1.65" y="36.75" angle="180.00" type="DEFAULT_VEHTYPE" speed="1.17" pos="40.93" lane="0/0to0/1_1" slope="0.00"/>
        <vehicle id="8" x="38.10" y="54.95" angle="-90.00" type="DEFAULT_VEHTYPE" speed="2.15" pos="7.25" lane="1/1to0/1_0" slope="0.00"/>
        <vehicle id="9" x="42.71" y="48.35" angle="90.00" type="DEFAULT_VEHTYPE" speed="0.01" pos="48.99" lane="0/1to1/1_1" slope="0.00"/>
    </timestep>
    <timestep time="12.00">
        <vehicle id="0" x="-1.65" y="6.62" angle="0.00" type="DEFAULT_VEHTYPE" speed="0.00" pos="49.90" lane="0/1to0/0_1" slope="0.00"/>
        <vehicle id="1" x="-1.65" y="17.83" angle="0.00" type="DEFAULT_VEHTYPE" speed="0.49" pos="34.72" lane="0/1to0/0_1" slope="0.00"/>
        <vehicle id="10" x="1.65" y="31.21" angle="180.00" type="DEFAULT_VEHTYPE" speed="3.35" pos="33.41" lane="0/0to0/1_1" slope="0.00"/>
        <vehicle id="12" x="7.33" y="1.65" angle="-90.00" type="DEFAULT_VEHTYPE" speed="0.25" pos="48.95" lane="1/0to0/0_1" slope="0.00"/>
        <vehicle id="13" x="1.65" y="25.05" angle="180.00" type="DEFAULT_VEHTYPE" speed="2.76" pos="25.07" lane="0/0to0/1_1" slope="0.00"/>
        <vehicle id="14" x="37.16" y="48.35" angle="90.00" type="DEFAULT_VEHTYPE" speed="0.16" pos="41.48" lane="0/1to1/1_1" slope="0.00"/>
        <vehicle id="15" x="4.95" y="20.15" angle="180.00" type="DEFAULT_VEHTYPE" speed="6.10" pos="18.43" lane="0/0to0/1_0" slope="0.00"/>
        <vehicle id="16" x="42.69" y="-1.65" angle="90.00" type="DEFAULT_VEHTYPE" speed="0.04" pos="48.97" lane="0/0to1/0_1" slope="0.00"/>
        <vehicle id="17" x="13.05" y="1.65" angle="-90.00" type="DEFAULT_VEHTYPE" speed="3.44" pos="41.19" lane="1/0to0/0_1" slope="0.00"/>
        <vehicle id="18" x="-4.95" y="37.85" angle="0.00" type="DEFAULT_VEHTYPE" speed="11.34" pos="7.59" lane="0/1to0/0_0" slope="0.00"/>
        <vehicle id="19" x="45.05" y="36.96" angle="0.00" type="DEFAULT_VEHTYPE" speed="13.02" pos="8.80" lane="1/1to1/0_0" slope="0.00"/>
        <vehicle id="2" x="-4.95" y="20.46" angle="0.00" type="DEFAULT_VEHTYPE" speed="12.68" pos="31.16" lane="0/1to0/0_0" slope="0.00"/>
        <vehicle id="3" x="30.40" y="51.65" angle="-90.00" type="DEFAULT_VEHTYPE" speed="6.27" pos="17.69" lane="1/1to0/1_1" slope="0.00"/>
        <vehicle id="4" x="-1.65" y="12.17" angle="0.00" type="DEFAULT_VEHTYPE" speed="0.01" pos="42.39" lane="0/1to0/0_1" slope="0.00"/>
        <vehicle id="5" x="1.65" y="42.70" angle="180.00" type="DEFAULT_VEHTYPE" speed="0.02" pos="48.99" lane="0/0to0/1_1" slope="0.00"/>
        <vehicle id="6" x="-1.65" y="24.40" angle="0.00" type="DEFAULT_VEHTYPE" speed="1.05" pos="25.81" lane="0/1to0/0_1" slope="0.00"/>
        <vehicle id="7" x="1.65" y="36.97" angle="180.00" type="DEFAULT_VEHTYPE" speed="0.29" pos="41.22" lane="0/0to0/1_1" slope="0.00"/>
        <vehicle id="8" x="35.04" y="54.95" angle="-90.00" type="DEFAULT_VEHTYPE" speed="4.15" pos="11.40" lane="1/1to0/1_0" slope="0.00"/>
        <vehicle id="9" x="42.71" y="48.35" angle="90.00" type="DEFAULT_VEHTYPE" speed="0.00" pos="49.00" lane="0/1to1/1_1" slope="0.00"/>
    </timestep>
    <timestep time="13.00">
        <vehicle id="0" x="1.65" y="7.64" angle="65.34" type="DEFAULT_VEHTYPE" speed="1.57" pos="1.47" lane="0/0to0/1_1" slope="0.00"/>
        <vehicle id="1" x="-1.65" y="17.71" angle="0.00" type="DEFAULT_VEHTYPE" speed="0.16" pos="34.88" lane="0/1to0/0_1" slope="0.00"/>
        <vehicle id="10" x="1.65" y="31.38" angle="180.00" type="DEFAULT_VEHTYPE" speed="0.24" pos="33.65" lane="0/0to0/1_1" slope="0.00"/>
        <vehicle id="11" x="39.69" y="54.95" angle="-90.00" type="DEFAULT_VEHTYPE" speed="0.00" pos="5.10" lane="1/1to0/1_0" slope="0.00"/>
        <vehicle id="12" x="7.29" y="1.65" angle="-90.00" type="DEFAULT_VEHTYPE" speed="0.05" pos="49.00" lane="1/0to0/0_1" slope="0.00"/>
        <vehicle id="13" x="1.65" y="25.56" angle="180.00" type="DEFAULT_VEHTYPE" speed="0.68" pos="25.75" lane="0/0to0/1_1" slope="0.00"/>
        <vehicle id="14" x="37.17" y="48.35" angle="90.00" type="DEFAULT_VEHTYPE" speed="0.01" pos="41.49" lane="0/1to1/1_1" slope="0.00"/>
        <vehicle id="15" x="4.95" y="26.44" angle="180.00" type="DEFAULT_VEHTYPE" speed="8.53" pos="26.95" lane="0/0to0/1_0" slope="0.00"/>
        <vehicle id="16" x="42.70" y="-1.65" angle="90.00" type="DEFAULT_VEHTYPE" speed="0.02" pos="48.99" lane="0/0to1/0_1" slope="0.00"/>
        <vehicle id="17" x="12.90" y="1.65" angle="-90.00" type="DEFAULT_VEHTYPE" speed="0.20" pos="41.39" lane="1/0to0/0_1" slope="0.00"/>
        <vehicle id="18" x="-4.95" y="28.60" angle="0.00" type="DEFAULT_VEHTYPE" speed="12.53" pos="20.13" lane="0/1to0/0_0" slope="0.00"/>
        <vehicle id="19" x="45.05" y="25.75" angle="0.00" type="DEFAULT_VEHTYPE" speed="15.19" pos="23.99" lane="1/1to1/0_0" slope="0.00"/>
        <vehicle id="2" x="-4.95" y="9.37" angle="0.00" type="DEFAULT_VEHTYPE" speed="15.02" pos="46.18" lane="0/1to0/0_0" slope="0.00"/>
        <vehicle id="3" x="24.05" y="51.65" angle="-90.00" type="DEFAULT_VEHTYPE" speed="8.60" pos="26.29" lane="1/1to0/1_1" slope="0.00"/>
        <vehicle id="4" x="-1.65" y="12.16" angle="0.00" type="DEFAULT_VEHTYPE" speed="0.01" pos="42.40" lane="0/1to0/0_1" slope="0.00"/>